# vtk DataFile Version 3.1
Diffusion Equation
ASCII
DATASET POLYDATA
POINTS 864 float
0.000000 0.000000 0.000000
4.000000 0.000000 0.000000
0.000000 4.000000 0.000000
4.000000 4.000000 0.000000
1.000000 1.000000 0.000000
3.000000 1.000000 0.000000
1.000000 3.000000 0.000000
3.000000 3.000000 0.000000
2.000000 0.000000 0.000000
4.000000 2.000000 0.000000
2.000000 4.000000 0.000000
0.000000 2.000000 0.000000
1.000000 2.000000 0.000000
3.000000 0.000000 0.000000
2.000000 3.000000 0.000000
0.000000 1.000000 0.000000
1.000000 0.000000 0.000000
3.000000 4.000000 0.000000
4.000000 3.000000 0.000000
2.000000 1.000000 0.000000
1.000000 4.000000 0.000000
3.000000 2.000000 0.000000
4.000000 1.000000 0.000000
0.000000 3.000000 0.000000
0.500000 2.500000 0.000000
0.500000 1.500000 0.000000
3.500000 0.500000 0.000000
2.500000 0.500000 0.000000
2.500000 3.500000 0.000000
1.500000 3.500000 0.000000
0.500000 0.500000 0.000000
1.500000 0.500000 0.000000
3.500000 3.500000 0.000000
3.500000 2.500000 0.000000
0.500000 3.500000 0.000000
3.500000 1.500000 0.000000
0.500000 2.000000 0.000000
1.000000 2.500000 0.000000
0.500000 3.000000 0.000000
0.000000 2.500000 0.000000
1.000000 1.500000 0.000000
0.000000 1.500000 0.000000
0.500000 1.000000 0.000000
3.000000 0.500000 0.000000
3.500000 0.000000 0.000000
4.000000 0.500000 0.000000
3.500000 1.000000 0.000000
2.500000 0.000000 0.000000
2.500000 1.000000 0.000000
2.000000 0.500000 0.000000
2.000000 3.500000 0.000000
2.500000 3.000000 0.000000
3.000000 3.500000 0.000000
2.500000 4.000000 0.000000
1.500000 3.000000 0.000000
1.500000 4.000000 0.000000
1.000000 3.500000 0.000000
0.000000 0.500000 0.000000
0.500000 0.000000 0.000000
1.000000 0.500000 0.000000
1.500000 0.000000 0.000000
1.500000 1.000000 0.000000
3.500000 4.000000 0.000000
3.500000 3.000000 0.000000
4.000000 3.500000 0.000000
4.000000 2.500000 0.000000
3.000000 2.500000 0.000000
3.500000 2.000000 0.000000
0.500000 4.000000 0.000000
0.000000 3.500000 0.000000
3.000000 1.500000 0.000000
4.000000 1.500000 0.000000
0.750000 2.250000 0.000000
0.250000 2.250000 0.000000
0.250000 1.750000 0.000000
0.750000 1.750000 0.000000
0.750000 2.750000 0.000000
0.250000 2.750000 0.000000
0.750000 3.250000 0.000000
0.250000 3.250000 0.000000
0.750000 1.250000 0.000000
0.250000 1.250000 0.000000
0.250000 0.750000 0.000000
0.750000 0.750000 0.000000
3.250000 0.250000 0.000000
3.250000 0.750000 0.000000
2.750000 0.750000 0.000000
2.750000 0.250000 0.000000
3.750000 0.250000 0.000000
3.750000 0.750000 0.000000
3.750000 1.250000 0.000000
3.250000 1.250000 0.000000
2.250000 0.250000 0.000000
2.250000 0.750000 0.000000
1.750000 0.750000 0.000000
1.750000 0.250000 0.000000
2.250000 3.250000 0.000000
2.250000 3.750000 0.000000
1.750000 3.750000 0.000000
1.750000 3.250000 0.000000
2.750000 3.250000 0.000000
2.750000 3.750000 0.000000
3.250000 3.250000 0.000000
3.250000 3.750000 0.000000
1.250000 3.250000 0.000000
1.250000 3.750000 0.000000
0.750000 3.750000 0.000000
0.250000 0.250000 0.000000
0.750000 0.250000 0.000000
1.250000 0.250000 0.000000
1.250000 0.750000 0.000000
3.750000 3.750000 0.000000
3.750000 3.250000 0.000000
3.250000 2.750000 0.000000
3.750000 2.750000 0.000000
3.750000 2.250000 0.000000
3.250000 2.250000 0.000000
3.250000 1.750000 0.000000
3.750000 1.750000 0.000000
0.250000 3.750000 0.000000
0.500000 2.250000 0.000000
0.750000 2.000000 0.000000
1.000000 2.250000 0.000000
0.750000 2.500000 0.000000
0.250000 2.000000 0.000000
0.250000 2.500000 0.000000
0.000000 2.250000 0.000000
0.500000 1.750000 0.000000
0.000000 1.750000 0.000000
0.250000 1.500000 0.000000
0.750000 1.500000 0.000000
1.000000 1.750000 0.000000
1.000000 2.750000 0.000000
0.750000 3.000000 0.000000
0.500000 2.750000 0.000000
0.250000 3.000000 0.000000
0.000000 2.750000 0.000000
0.500000 3.250000 0.000000
1.000000 3.250000 0.000000
0.750000 3.500000 0.000000
0.250000 3.500000 0.000000
0.000000 3.250000 0.000000
1.000000 1.250000 0.000000
0.500000 1.250000 0.000000
0.750000 1.000000 0.000000
0.000000 1.250000 0.000000
0.250000 1.000000 0.000000
0.500000 0.750000 0.000000
0.000000 0.750000 0.000000
0.250000 0.500000 0.000000
0.750000 0.500000 0.000000
1.000000 0.750000 0.000000
3.250000 0.500000 0.000000
3.000000 0.250000 0.000000
3.250000 0.000000 0.000000
3.500000 0.250000 0.000000
3.000000 0.750000 0.000000
3.500000 0.750000 0.000000
3.250000 1.000000 0.000000
2.750000 0.500000 0.000000
2.750000 1.000000 0.000000
2.500000 0.750000 0.000000
2.500000 0.250000 0.000000
2.750000 0.000000 0.000000
3.750000 0.000000 0.000000
4.000000 0.250000 0.000000
3.750000 0.500000 0.000000
4.000000 0.750000 0.000000
3.750000 1.000000 0.000000
3.500000 1.250000 0.000000
4.000000 1.250000 0.000000
3.750000 1.500000 0.000000
3.250000 1.500000 0.000000
3.000000 1.250000 0.000000
2.250000 0.000000 0.000000
2.250000 0.500000 0.000000
2.000000 0.250000 0.000000
2.250000 1.000000 0.000000
2.000000 0.750000 0.000000
1.750000 0.500000 0.000000
1.750000 1.000000 0.000000
1.500000 0.750000 0.000000
1.500000 0.250000 0.000000
1.750000 0.000000 0.000000
2.250000 3.500000 0.000000
2.000000 3.250000 0.000000
2.250000 3.000000 0.000000
2.500000 3.250000 0.000000
2.000000 3.750000 0.000000
2.500000 3.750000 0.000000
2.250000 4.000000 0.000000
1.750000 3.500000 0.000000
1.750000 4.000000 0.000000
1.500000 3.750000 0.000000
1.500000 3.250000 0.000000
1.750000 3.000000 0.000000
2.750000 3.000000 0.000000
3.000000 3.250000 0.000000
2.750000 3.500000 0.000000
3.000000 3.750000 0.000000
2.750000 4.000000 0.000000
3.250000 3.500000 0.000000
3.250000 3.000000 0.000000
3.500000 3.250000 0.000000
3.500000 3.750000 0.000000
3.250000 4.000000 0.000000
1.250000 3.000000 0.000000
1.250000 3.500000 0.000000
1.250000 4.000000 0.000000
1.000000 3.750000 0.000000
0.750000 4.000000 0.000000
0.500000 3.750000 0.000000
0.000000 0.250000 0.000000
0.250000 0.000000 0.000000
0.500000 0.250000 0.000000
0.750000 0.000000 0.000000
1.000000 0.250000 0.000000
1.250000 0.500000 0.000000
1.250000 0.000000 0.000000
1.250000 1.000000 0.000000
3.750000 4.000000 0.000000
3.750000 3.500000 0.000000
4.000000 3.750000 0.000000
3.750000 3.000000 0.000000
4.000000 3.250000 0.000000
3.500000 2.750000 0.000000
3.000000 2.750000 0.000000
3.250000 2.500000 0.000000
3.750000 2.500000 0.000000
4.000000 2.750000 0.000000
4.000000 2.250000 0.000000
3.500000 2.250000 0.000000
3.750000 2.000000 0.000000
3.000000 2.250000 0.000000
3.250000 2.000000 0.000000
3.500000 1.750000 0.000000
3.000000 1.750000 0.000000
4.000000 1.750000 0.000000
0.250000 4.000000 0.000000
0.000000 3.750000 0.000000
0.625000 2.125000 0.000000
0.625000 2.375000 0.000000
0.375000 2.375000 0.000000
0.375000 2.125000 0.000000
0.875000 2.125000 0.000000
0.625000 1.875000 0.000000
0.875000 1.875000 0.000000
0.875000 2.375000 0.000000
0.875000 2.625000 0.000000
0.625000 2.625000 0.000000
0.125000 2.125000 0.000000
0.125000 1.875000 0.000000
0.375000 1.875000 0.000000
0.125000 2.375000 0.000000
0.375000 2.625000 0.000000
0.125000 2.625000 0.000000
0.375000 1.625000 0.000000
0.625000 1.625000 0.000000
0.125000 1.625000 0.000000
0.125000 1.375000 0.000000
0.375000 1.375000 0.000000
0.875000 1.625000 0.000000
0.625000 1.375000 0.000000
0.875000 1.375000 0.000000
0.875000 2.875000 0.000000
0.625000 2.875000 0.000000
0.875000 3.125000 0.000000
0.625000 3.125000 0.000000
0.375000 2.875000 0.000000
0.125000 2.875000 0.000000
0.375000 3.125000 0.000000
0.125000 3.125000 0.000000
0.625000 3.375000 0.000000
0.375000 3.375000 0.000000
0.875000 3.375000 0.000000
1.125000 3.125000 0.000000
1.125000 3.375000 0.000000
0.875000 3.625000 0.000000
0.625000 3.625000 0.000000
0.125000 3.375000 0.000000
0.375000 3.625000 0.000000
0.125000 3.625000 0.000000
0.875000 1.125000 0.000000
0.625000 1.125000 0.000000
0.375000 1.125000 0.000000
0.625000 0.875000 0.000000
0.875000 0.875000 0.000000
0.125000 1.125000 0.000000
0.125000 0.875000 0.000000
0.375000 0.875000 0.000000
0.375000 0.625000 0.000000
0.625000 0.625000 0.000000
0.125000 0.625000 0.000000
0.125000 0.375000 0.000000
0.375000 0.375000 0.000000
0.875000 0.625000 0.000000
0.625000 0.375000 0.000000
0.875000 0.375000 0.000000
1.125000 0.625000 0.000000
1.125000 0.875000 0.000000
3.125000 0.375000 0.000000
3.375000 0.375000 0.000000
3.375000 0.625000 0.000000
3.125000 0.625000 0.000000
3.125000 0.125000 0.000000
2.875000 0.375000 0.000000
2.875000 0.125000 0.000000
3.375000 0.125000 0.000000
3.625000 0.125000 0.000000
3.625000 0.375000 0.000000
3.125000 0.875000 0.000000
2.875000 0.875000 0.000000
2.875000 0.625000 0.000000
3.375000 0.875000 0.000000
3.625000 0.625000 0.000000
3.625000 0.875000 0.000000
3.375000 1.125000 0.000000
3.125000 1.125000 0.000000
2.625000 0.625000 0.000000
2.625000 0.375000 0.000000
2.625000 0.875000 0.000000
2.375000 0.875000 0.000000
2.375000 0.625000 0.000000
2.625000 0.125000 0.000000
2.375000 0.375000 0.000000
2.375000 0.125000 0.000000
3.875000 0.125000 0.000000
3.875000 0.375000 0.000000
3.875000 0.625000 0.000000
3.875000 0.875000 0.000000
3.875000 1.125000 0.000000
3.625000 1.125000 0.000000
3.625000 1.375000 0.000000
3.375000 1.375000 0.000000
3.875000 1.375000 0.000000
3.875000 1.625000 0.000000
3.625000 1.625000 0.000000
3.125000 1.375000 0.000000
3.375000 1.625000 0.000000
3.125000 1.625000 0.000000
2.125000 0.125000 0.000000
2.125000 0.375000 0.000000
2.125000 0.625000 0.000000
1.875000 0.375000 0.000000
1.875000 0.125000 0.000000
2.125000 0.875000 0.000000
1.875000 0.875000 0.000000
1.875000 0.625000 0.000000
1.625000 0.625000 0.000000
1.625000 0.375000 0.000000
1.625000 0.875000 0.000000
1.375000 0.875000 0.000000
1.375000 0.625000 0.000000
1.625000 0.125000 0.000000
1.375000 0.375000 0.000000
1.375000 0.125000 0.000000
2.125000 3.375000 0.000000
2.375000 3.375000 0.000000
2.375000 3.625000 0.000000
2.125000 3.625000 0.000000
2.125000 3.125000 0.000000
1.875000 3.375000 0.000000
1.875000 3.125000 0.000000
2.375000 3.125000 0.000000
2.625000 3.125000 0.000000
2.625000 3.375000 0.000000
2.125000 3.875000 0.000000
[...]
POINT_DATA 864
SCALARS Temperature float
LOOKUP_TABLE default
0.000000
0.000000
-24.463057
-24.463057
4.049713
4.049713
-11.735268
-11.735268
0.000000
-2.170791
-24.528060
-2.170791
1.247694
0.000000
-15.401943
1.240656
0.000000
-23.682055
-11.729592
6.110117
-23.682055
1.247694
1.240656
-11.729592
-5.669272
1.146162
1.208826
2.628937
-19.139224
-19.139224
1.208826
2.628937
-17.696258
-5.669272
-17.696258
1.146162
-1.351910
-3.326341
-11.544044
-6.315457
3.729724
0.337144
1.863216
1.957873
0.000000
0.921724
1.863216
0.000000
5.751007
2.848975
-19.522400
-14.836184
-18.207561
-24.258212
-14.836184
-24.258212
-18.207561
0.921724
0.000000
1.957873
0.000000
5.751007
-23.382170
-11.544044
-17.685778
-6.315457
-3.326341
-1.351910
-23.382170
-17.685778
3.729724
0.337144
-2.272216
-3.863078
-0.500811
1.195942
-7.842795
-8.798541
-14.799520
-14.666892
2.702382
1.156671
1.310862
2.222059
0.789586
2.222059
3.646417
1.151145
0.531829
1.310862
1.156671
2.702382
1.370073
4.330377
4.330377
1.370073
-17.208515
-21.855977
-21.855977
-17.208515
-16.168280
-21.314937
-14.799520
-20.721740
-16.168280
-21.314937
-20.721740
0.531829
0.789586
1.151145
3.646417
-20.656936
-14.666892
-7.842795
-8.798541
-3.863078
-2.272216
1.195942
-0.500811
-20.656936
-3.285990
-0.291077
-0.756021
-4.774469
-1.968793
-6.158861
-4.050197
0.125209
-0.706402
0.536690
2.196599
2.739084
-6.645777
-11.410460
-8.464334
-11.678310
-8.906423
-14.667643
-15.294120
-17.854273
-17.671420
-14.679525
4.198081
1.717717
2.691670
0.974091
1.393644
1.653357
1.197120
0.994462
1.547097
2.966310
1.547097
0.974707
0.000000
0.633374
2.966310
1.653357
2.691670
2.344288
5.205314
4.090110
1.287364
0.000000
0.000000
0.496915
0.994462
1.197120
1.393644
1.717717
0.974091
0.536690
2.196599
4.198081
0.000000
2.795017
1.397479
6.025353
4.406115
2.795017
6.025353
4.090110
1.287364
0.000000
-19.425020
-17.330249
-15.267893
-16.831175
-21.933969
-21.635015
-24.457050
-19.425020
-24.457050
-21.635015
-16.831175
-15.267893
-13.958711
-15.294120
-18.697695
-20.977453
-23.975688
-17.854273
-11.410460
-14.667643
-20.610520
-23.460655
-13.958711
-18.697695
-23.975688
-20.977453
-23.460655
-20.610520
0.496915
0.000000
0.633374
0.000000
0.974707
2.344288
0.000000
5.205314
-23.538017
-17.671420
-20.774281
-11.678310
-14.679525
-8.464334
-6.645777
-4.774469
-6.158861
-8.906423
-4.050197
-3.285990
-1.968793
-0.756021
-0.291077
0.125209
2.739084
-0.706402
-23.538017
-20.774281
-1.798490
-3.997941
-4.741538
-2.615284
-0.516759
-0.078927
1.224126
-2.781898
-5.646637
-6.682240
-3.010970
-1.334778
-0.922273
-5.094282
-7.269227
-7.542038
0.328418
1.167316
-0.081647
0.752694
1.140884
2.466241
1.942112
3.206774
-9.291907
-9.807227
-13.313528
-13.109452
-10.118581
-10.275928
-13.138481
-13.187026
-16.251908
-16.173484
-16.530165
-14.394083
-17.093381
-19.435724
-19.217105
-16.174551
-19.154622
-19.194249
3.408940
2.246452
1.534439
2.107758
2.962297
1.192602
1.286464
1.556159
1.292050
1.657161
1.106467
0.736396
0.842146
2.171798
1.044520
1.317283
2.731935
3.990393
1.317283
1.044520
1.657161
2.171798
0.441110
1.607787
0.531647
0.355710
0.291306
0.842146
2.962297
3.990393
2.731935
2.107758
1.292050
1.556159
2.246452
3.408940
3.178509
1.853545
4.672142
5.048545
3.461211
0.609806
2.020573
0.664450
0.257227
0.736396
1.106467
1.286464
1.192602
1.534439
1.140884
1.942112
0.752694
-0.081647
0.328418
3.206774
1.167316
2.466241
0.691925
2.102941
3.595033
2.102941
0.691925
5.217633
5.217633
3.595033
3.461211
2.020573
5.048545
4.672142
3.178509
0.664450
1.853545
0.609806
-18.368584
-18.148521
-20.511522
-20.681754
-16.298501
-18.368584
-16.298501
-16.031579
-15.444760
-17.709054
-23.191272
-23.191272
-20.681754
-23.049162
-20.194872
-22.793527
-20.511522
-18.148521
-23.049162
-22.793527
-20.194872
-16.031579
-17.709054
-15.444760
-14.394083
-17.093381
-13.313528
-16.530165
-19.796558
-22.484603
-19.435724
-22.207185
-16.251908
-19.217105
-13.109452
-9.291907
-9.807227
-13.138481
-16.173484
-22.041130
-19.154622
-22.043599
-19.796558
-22.484603
-22.207185
-22.041130
-22.043599
0.257227
0.291306
0.355710
0.441110
0.531647
1.607787
-22.273745
-19.194249
-16.174551
-13.187026
-10.118581
-10.275928
-6.682240
-7.269227
-5.646637
-2.781898
-3.997941
-7.542038
-4.741538
-5.094282
-3.010970
-2.615284
-1.798490
-0.922273
-1.334778
-0.516759
1.224126
-0.078927
-22.273745
-2.838011
-2.262306
-0.879525
-1.219022
-4.423003
-3.455947
-5.280265
-3.625825
-5.959011
-4.963759
-2.863919
-1.713988
0.416572
0.311580
-1.581074
0.513055
-0.556436
0.602885
1.906847
2.055724
-1.964426
-4.131618
-6.235785
-4.869167
-7.355994
-8.198371
-7.020523
-2.120756
-4.003985
-3.060120
-1.181124
-1.386147
-0.655407
-0.241862
-6.276948
-5.137875
-7.441424
-8.661898
-8.879963
-7.575748
0.692238
0.071127
0.788463
1.613468
1.756984
-0.132673
0.386647
0.897121
0.704543
1.019363
1.387773
1.487101
2.900251
3.297209
2.512343
2.152504
3.379372
4.032139
-8.793962
-11.436939
-9.587285
-11.466963
-9.982744
-13.157376
-13.683358
-14.983440
-14.706257
-13.114056
-11.619031
-10.217043
-11.716895
-10.296173
-13.166836
-14.660762
-14.676140
-13.194953
-16.196440
-16.358069
-17.753984
-17.673055
-16.170711
-16.780389
-18.006013
-15.736544
-13.173201
-14.990528
-17.416161
-18.447863
-19.306293
-19.603391
-20.834595
-20.646707
-19.168721
-17.680613
-16.177728
-19.168409
-20.615511
-20.723900
-19.211243
4.213119
2.762650
3.278385
1.840758
2.227529
1.319648
1.587132
2.496153
1.795347
1.910266
2.580775
3.492348
1.150299
1.278614
1.387016
1.252912
1.225428
1.453301
1.453004
1.176123
1.084497
1.364518
1.899669
1.083110
0.939893
0.776304
0.722955
0.505656
0.574726
0.932307
1.748615
2.457096
1.174703
0.705855
0.880722
1.464482
3.333886
2.160554
2.975378
4.378682
4.755533
1.174703
1.748615
1.464482
0.880722
1.364518
0.705855
0.932307
1.899669
1.453004
1.910266
2.580775
2.457096
0.486889
0.000000
0.396629
1.066364
2.160554
1.739248
0.573169
0.000000
0.000000
0.320127
0.574726
0.000000
0.270122
0.776304
1.084497
3.492348
2.496153
3.278385
3.333886
4.755533
4.378682
2.975378
1.795347
2.227529
1.453301
1.176123
1.387016
1.587132
2.762650
1.840758
2.152504
3.379372
4.213119
2.501385
3.896885
3.339761
1.947650
1.225499
5.521681
4.890535
4.232631
5.914868
5.155546
3.545467
2.726487
0.640420
0.000000
1.335643
2.072189
0.681625
0.000000
0.000000
0.252874
0.505656
0.722955
0.939893
1.083110
1.225428
1.252912
1.278614
1.319648
1.150299
1.019363
1.387773
1.487101
0.897121
0.788463
1.613468
2.512343
0.704543
0.386647
0.071127
-0.132673
-0.655407
-0.241862
0.692238
2.900251
4.032139
1.756984
0.602885
1.906847
3.297209
0.000000
1.390629
0.695345
2.835538
2.113119
4.387350
3.611343
1.390629
2.835538
2.072189
0.681625
0.000000
6.089179
5.237938
4.387350
6.089179
5.155546
3.545467
2.726487
4.232631
3.339761
1.947650
1.335643
5.914868
4.890535
3.896885
5.521681
2.501385
0.640420
0.000000
1.225499
1.739248
0.573169
0.000000
-18.286689
-19.498465
-18.396480
-17.300490
-19.305104
-17.053983
-17.956034
-20.617595
-20.369194
-21.761949
-21.914767
-20.703993
-16.331325
-15.369309
-16.200653
-17.300490
-19.498465
-18.286689
-16.200653
-15.369309
-15.094417
-15.784969
-16.537370
-14.473732
-14.990528
-17.416161
-18.934257
-23.210166
-23.137391
-24.510579
-21.914767
-24.510579
-23.137391
-20.617595
-22.933012
-24.372068
-21.483628
-20.000066
-22.641234
-24.123920
-19.305104
-21.761949
-20.369194
-17.956034
-17.053983
-24.372068
-22.933012
-21.483628
-24.123920
-22.641234
-20.000066
-18.934257
-15.784969
-15.094417
-16.537370
-14.473732
-13.173201
-13.683358
-15.736544
-16.780389
-18.447863
-14.983440
-11.436939
-13.157376
-16.358069
-18.006013
-19.603391
-21.142442
-22.336884
-23.825432
-20.834595
-19.306293
-22.106751
-23.557979
-17.753984
-14.706257
-16.196440
-19.168721
-20.646707
-11.466963
-13.114056
-9.587285
-8.793962
-7.355994
-8.198371
-9.982744
-14.660762
-11.619031
-13.166836
-16.170711
-17.673055
-22.018439
-23.399992
-20.615511
-19.168409
-22.127165
-23.420576
-21.142442
-23.825432
-22.336884
-23.557979
-22.106751
-23.399992
-22.018439
-23.420576
-22.127165
0.252874
0.000000
0.270122
0.000000
0.320127
0.000000
0.396629
0.000000
0.486889
1.066364
0.000000
-23.805875
-20.723900
-22.445300
-17.680613
-19.211243
-14.676140
-16.177728
-11.716895
-13.194953
-10.217043
-8.661898
-8.879963
-10.296173
-7.020523
-6.235785
-5.280265
-5.959011
-7.441424
-4.869167
-4.131618
-3.455947
-1.964426
-1.581074
-2.838011
-4.423003
-6.276948
-7.575748
-4.963759
-3.625825
-4.003985
-5.137875
-3.060120
-2.863919
-2.120756
-2.262306
-1.713988
-1.219022
-0.879525
-1.181124
-0.556436
-1.386147
0.311580
0.416572
0.513055
2.055724
-23.805875
-22.445300
