# vtk DataFile Version 3.1
Diffusion Equation
ASCII
DATASET POLYDATA
POINTS 864 float
0.000000 0.000000 0.000000
4.000000 0.000000 0.000000
0.000000 4.000000 0.000000
4.000000 4.000000 0.000000
1.000000 1.000000 0.000000
3.000000 1.000000 0.000000
1.000000 3.000000 0.000000
3.000000 3.000000 0.000000
2.000000 0.000000 0.000000
4.000000 2.000000 0.000000
2.000000 4.000000 0.000000
0.000000 2.000000 0.000000
1.000000 2.000000 0.000000
3.000000 0.000000 0.000000
2.000000 3.000000 0.000000
0.000000 1.000000 0.000000
1.000000 0.000000 0.000000
3.000000 4.000000 0.000000
4.000000 3.000000 0.000000
2.000000 1.000000 0.000000
1.000000 4.000000 0.000000
3.000000 2.000000 0.000000
4.000000 1.000000 0.000000
0.000000 3.000000 0.000000
0.500000 2.500000 0.000000
0.500000 1.500000 0.000000
3.500000 0.500000 0.000000
2.500000 0.500000 0.000000
2.500000 3.500000 0.000000
1.500000 3.500000 0.000000
0.500000 0.500000 0.000000
1.500000 0.500000 0.000000
3.500000 3.500000 0.000000
3.500000 2.500000 0.000000
0.500000 3.500000 0.000000
3.500000 1.500000 0.000000
0.500000 2.000000 0.000000
1.000000 2.500000 0.000000
0.500000 3.000000 0.000000
0.000000 2.500000 0.000000
1.000000 1.500000 0.000000
0.000000 1.500000 0.000000
0.500000 1.000000 0.000000
3.000000 0.500000 0.000000
3.500000 0.000000 0.000000
4.000000 0.500000 0.000000
3.500000 1.000000 0.000000
2.500000 0.000000 0.000000
2.500000 1.000000 0.000000
2.000000 0.500000 0.000000
2.000000 3.500000 0.000000
2.500000 3.000000 0.000000
3.000000 3.500000 0.000000
2.500000 4.000000 0.000000
1.500000 3.000000 0.000000
1.500000 4.000000 0.000000
1.000000 3.500000 0.000000
0.000000 0.500000 0.000000
0.500000 0.000000 0.000000
1.000000 0.500000 0.000000
1.500000 0.000000 0.000000
1.500000 1.000000 0.000000
3.500000 4.000000 0.000000
3.500000 3.000000 0.000000
4.000000 3.500000 0.000000
4.000000 2.500000 0.000000
3.000000 2.500000 0.000000
3.500000 2.000000 0.000000
0.500000 4.000000 0.000000
0.000000 3.500000 0.000000
3.000000 1.500000 0.000000
4.000000 1.500000 0.000000
0.750000 2.250000 0.000000
0.250000 2.250000 0.000000
0.250000 1.750000 0.000000
0.750000 1.750000 0.000000
0.750000 2.750000 0.000000
0.250000 2.750000 0.000000
0.750000 3.250000 0.000000
0.250000 3.250000 0.000000
0.750000 1.250000 0.000000
0.250000 1.250000 0.000000
0.250000 0.750000 0.000000
0.750000 0.750000 0.000000
3.250000 0.250000 0.000000
3.250000 0.750000 0.000000
2.750000 0.750000 0.000000
2.750000 0.250000 0.000000
3.750000 0.250000 0.000000
3.750000 0.750000 0.000000
3.750000 1.250000 0.000000
3.250000 1.250000 0.000000
2.250000 0.250000 0.000000
2.250000 0.750000 0.000000
1.750000 0.750000 0.000000
1.750000 0.250000 0.000000
2.250000 3.250000 0.000000
2.250000 3.750000 0.000000
1.750000 3.750000 0.000000
1.750000 3.250000 0.000000
2.750000 3.250000 0.000000
2.750000 3.750000 0.000000
3.250000 3.250000 0.000000
3.250000 3.750000 0.000000
1.250000 3.250000 0.000000
1.250000 3.750000 0.000000
0.750000 3.750000 0.000000
0.250000 0.250000 0.000000
0.750000 0.250000 0.000000
1.250000 0.250000 0.000000
1.250000 0.750000 0.000000
3.750000 3.750000 0.000000
3.750000 3.250000 0.000000
3.250000 2.750000 0.000000
3.750000 2.750000 0.000000
3.750000 2.250000 0.000000
3.250000 2.250000 0.000000
3.250000 1.750000 0.000000
3.750000 1.750000 0.000000
0.250000 3.750000 0.000000
0.500000 2.250000 0.000000
0.750000 2.000000 0.000000
1.000000 2.250000 0.000000
0.750000 2.500000 0.000000
0.250000 2.000000 0.000000
0.250000 2.500000 0.000000
0.000000 2.250000 0.000000
0.500000 1.750000 0.000000
0.000000 1.750000 0.000000
0.250000 1.500000 0.000000
0.750000 1.500000 0.000000
1.000000 1.750000 0.000000
1.000000 2.750000 0.000000
0.750000 3.000000 0.000000
0.500000 2.750000 0.000000
0.250000 3.000000 0.000000
0.000000 2.750000 0.000000
0.500000 3.250000 0.000000
1.000000 3.250000 0.000000
0.750000 3.500000 0.000000
0.250000 3.500000 0.000000
0.000000 3.250000 0.000000
1.000000 1.250000 0.000000
0.500000 1.250000 0.000000
0.750000 1.000000 0.000000
0.000000 1.250000 0.000000
0.250000 1.000000 0.000000
0.500000 0.750000 0.000000
0.000000 0.750000 0.000000
0.250000 0.500000 0.000000
0.750000 0.500000 0.000000
1.000000 0.750000 0.000000
3.250000 0.500000 0.000000
3.000000 0.250000 0.000000
3.250000 0.000000 0.000000
3.500000 0.250000 0.000000
3.000000 0.750000 0.000000
3.500000 0.750000 0.000000
3.250000 1.000000 0.000000
2.750000 0.500000 0.000000
2.750000 1.000000 0.000000
2.500000 0.750000 0.000000
2.500000 0.250000 0.000000
2.750000 0.000000 0.000000
3.750000 0.000000 0.000000
4.000000 0.250000 0.000000
3.750000 0.500000 0.000000
4.000000 0.750000 0.000000
3.750000 1.000000 0.000000
3.500000 1.250000 0.000000
4.000000 1.250000 0.000000
3.750000 1.500000 0.000000
3.250000 1.500000 0.000000
3.000000 1.250000 0.000000
2.250000 0.000000 0.000000
2.250000 0.500000 0.000000
2.000000 0.250000 0.000000
2.250000 1.000000 0.000000
2.000000 0.750000 0.000000
1.750000 0.500000 0.000000
1.750000 1.000000 0.000000
1.500000 0.750000 0.000000
1.500000 0.250000 0.000000
1.750000 0.000000 0.000000
2.250000 3.500000 0.000000
2.000000 3.250000 0.000000
2.250000 3.000000 0.000000
2.500000 3.250000 0.000000
2.000000 3.750000 0.000000
2.500000 3.750000 0.000000
2.250000 4.000000 0.000000
1.750000 3.500000 0.000000
1.750000 4.000000 0.000000
1.500000 3.750000 0.000000
1.500000 3.250000 0.000000
1.750000 3.000000 0.000000
2.750000 3.000000 0.000000
3.000000 3.250000 0.000000
2.750000 3.500000 0.000000
3.000000 3.750000 0.000000
2.750000 4.000000 0.000000
3.250000 3.500000 0.000000
3.250000 3.000000 0.000000
3.500000 3.250000 0.000000
3.500000 3.750000 0.000000
3.250000 4.000000 0.000000
1.250000 3.000000 0.000000
1.250000 3.500000 0.000000
1.250000 4.000000 0.000000
1.000000 3.750000 0.000000
0.750000 4.000000 0.000000
0.500000 3.750000 0.000000
0.000000 0.250000 0.000000
0.250000 0.000000 0.000000
0.500000 0.250000 0.000000
0.750000 0.000000 0.000000
1.000000 0.250000 0.000000
1.250000 0.500000 0.000000
1.250000 0.000000 0.000000
1.250000 1.000000 0.000000
3.750000 4.000000 0.000000
3.750000 3.500000 0.000000
4.000000 3.750000 0.000000
3.750000 3.000000 0.000000
4.000000 3.250000 0.000000
3.500000 2.750000 0.000000
3.000000 2.750000 0.000000
3.250000 2.500000 0.000000
3.750000 2.500000 0.000000
4.000000 2.750000 0.000000
4.000000 2.250000 0.000000
3.500000 2.250000 0.000000
3.750000 2.000000 0.000000
3.000000 2.250000 0.000000
3.250000 2.000000 0.000000
3.500000 1.750000 0.000000
3.000000 1.750000 0.000000
4.000000 1.750000 0.000000
0.250000 4.000000 0.000000
0.000000 3.750000 0.000000
0.625000 2.125000 0.000000
0.625000 2.375000 0.000000
0.375000 2.375000 0.000000
0.375000 2.125000 0.000000
0.875000 2.125000 0.000000
0.625000 1.875000 0.000000
0.875000 1.875000 0.000000
0.875000 2.375000 0.000000
0.875000 2.625000 0.000000
0.625000 2.625000 0.000000
0.125000 2.125000 0.000000
0.125000 1.875000 0.000000
0.375000 1.875000 0.000000
0.125000 2.375000 0.000000
0.375000 2.625000 0.000000
0.125000 2.625000 0.000000
0.375000 1.625000 0.000000
0.625000 1.625000 0.000000
0.125000 1.625000 0.000000
0.125000 1.375000 0.000000
0.375000 1.375000 0.000000
0.875000 1.625000 0.000000
0.625000 1.375000 0.000000
0.875000 1.375000 0.000000
0.875000 2.875000 0.000000
0.625000 2.875000 0.000000
0.875000 3.125000 0.000000
0.625000 3.125000 0.000000
0.375000 2.875000 0.000000
0.125000 2.875000 0.000000
0.375000 3.125000 0.000000
0.125000 3.125000 0.000000
0.625000 3.375000 0.000000
0.375000 3.375000 0.000000
0.875000 3.375000 0.000000
1.125000 3.125000 0.000000
1.125000 3.375000 0.000000
0.875000 3.625000 0.000000
0.625000 3.625000 0.000000
0.125000 3.375000 0.000000
0.375000 3.625000 0.000000
0.125000 3.625000 0.000000
0.875000 1.125000 0.000000
0.625000 1.125000 0.000000
0.375000 1.125000 0.000000
0.625000 0.875000 0.000000
0.875000 0.875000 0.000000
0.125000 1.125000 0.000000
0.125000 0.875000 0.000000
0.375000 0.875000 0.000000
0.375000 0.625000 0.000000
0.625000 0.625000 0.000000
0.125000 0.625000 0.000000
0.125000 0.375000 0.000000
0.375000 0.375000 0.000000
0.875000 0.625000 0.000000
0.625000 0.375000 0.000000
0.875000 0.375000 0.000000
1.125000 0.625000 0.000000
1.125000 0.875000 0.000000
3.125000 0.375000 0.000000
3.375000 0.375000 0.000000
3.375000 0.625000 0.000000
3.125000 0.625000 0.000000
3.125000 0.125000 0.000000
2.875000 0.375000 0.000000
2.875000 0.125000 0.000000
3.375000 0.125000 0.000000
3.625000 0.125000 0.000000
3.625000 0.375000 0.000000
3.125000 0.875000 0.000000
2.875000 0.875000 0.000000
2.875000 0.625000 0.000000
3.375000 0.875000 0.000000
3.625000 0.625000 0.000000
3.625000 0.875000 0.000000
3.375000 1.125000 0.000000
3.125000 1.125000 0.000000
2.625000 0.625000 0.000000
2.625000 0.375000 0.000000
2.625000 0.875000 0.000000
2.375000 0.875000 0.000000
2.375000 0.625000 0.000000
2.625000 0.125000 0.000000
2.375000 0.375000 0.000000
2.375000 0.125000 0.000000
3.875000 0.125000 0.000000
3.875000 0.375000 0.000000
3.875000 0.625000 0.000000
3.875000 0.875000 0.000000
3.875000 1.125000 0.000000
3.625000 1.125000 0.000000
3.625000 1.375000 0.000000
3.375000 1.375000 0.000000
3.875000 1.375000 0.000000
3.875000 1.625000 0.000000
3.625000 1.625000 0.000000
3.125000 1.375000 0.000000
3.375000 1.625000 0.000000
3.125000 1.625000 0.000000
2.125000 0.125000 0.000000
2.125000 0.375000 0.000000
2.125000 0.625000 0.000000
1.875000 0.375000 0.000000
1.875000 0.125000 0.000000
2.125000 0.875000 0.000000
1.875000 0.875000 0.000000
1.875000 0.625000 0.000000
1.625000 0.625000 0.000000
1.625000 0.375000 0.000000
1.625000 0.875000 0.000000
1.375000 0.875000 0.000000
1.375000 0.625000 0.000000
1.625000 0.125000 0.000000
1.375000 0.375000 0.000000
1.375000 0.125000 0.000000
2.125000 3.375000 0.000000
2.375000 3.375000 0.000000
2.375000 3.625000 0.000000
2.125000 3.625000 0.000000
2.125000 3.125000 0.000000
1.875000 3.375000 0.000000
1.875000 3.125000 0.000000
2.375000 3.125000 0.000000
2.625000 3.125000 0.000000
2.625000 3.375000 0.000000
2.125000 3.875000 0.000000
[...]
POINT_DATA 864
SCALARS Temperature float
LOOKUP_TABLE default
0.000000
0.000000
-27.143590
-27.143590
3.448182
3.448182
-14.302310
-14.302310
0.000000
-3.873511
-27.413813
-3.873511
-0.453460
0.000000
-18.273005
0.434144
0.000000
-26.460195
-14.145153
5.918405
-26.460195
-0.453460
0.434144
-14.145153
-7.777916
-0.100727
0.847905
2.457944
-21.977740
-21.977740
0.847905
2.457944
-20.340391
-7.777916
-20.340391
-0.100727
-3.053889
-5.448084
-13.985969
-8.414995
2.500670
-0.921921
1.088928
1.683087
0.000000
0.535498
1.088928
0.000000
5.494919
2.715290
-22.401064
-17.653990
-20.941685
-27.112320
-17.653990
-27.112320
-20.941685
0.535498
0.000000
1.683087
0.000000
5.494919
-26.089545
-13.985969
-20.300147
-8.414995
-5.448084
-3.053889
-26.089545
-20.300147
2.500670
-0.921921
-4.187575
-5.773000
-1.984034
-0.278952
-10.150210
-11.072983
-17.404281
-17.205539
1.720274
0.131224
0.727745
1.714900
0.629375
1.714900
3.337564
1.039859
0.344435
0.727745
0.131224
1.720274
1.293783
4.140688
4.140688
1.293783
-20.069930
-24.730979
-24.730979
-20.069930
-18.929629
-24.126722
-17.404281
-23.446758
-18.929629
-24.126722
-23.446758
0.344435
0.629375
1.039859
3.337564
-23.327985
-17.205539
-10.150210
-11.072983
-5.773000
-4.187575
-0.278952
-1.984034
-23.327985
-5.198429
-1.992482
-2.672760
-6.891636
-3.671303
-8.260821
-5.959168
-1.354147
-2.191093
-0.719153
0.961264
1.266285
-8.968988
-13.891154
-10.751751
-14.100202
-11.176494
-17.229451
-17.969174
-20.536340
-20.293159
-17.210810
3.237765
0.709001
1.967943
-0.056894
0.594696
1.095740
0.606192
0.614307
1.221087
2.547421
1.221087
0.837967
0.000000
0.455962
2.547421
1.095740
1.967943
2.126955
4.848156
3.858257
1.197478
0.000000
0.000000
0.306296
0.614307
0.606192
0.594696
0.709001
-0.056894
-0.719153
0.961264
3.237765
0.000000
2.652090
1.325781
5.818534
4.229748
2.652090
5.818534
3.858257
1.197478
0.000000
-22.293521
-20.203600
-18.126139
-19.655965
-24.817692
-24.484882
-27.334608
-22.293521
-27.334608
-24.484882
-19.655965
-18.126139
-16.698606
-17.969174
-21.488836
-23.744756
-26.794656
-20.536340
-13.891154
-17.229451
-23.302308
-26.199540
-16.698606
-21.488836
-26.794656
-23.744756
-26.199540
-23.302308
0.306296
0.000000
0.455962
0.000000
0.837967
2.126955
0.000000
4.848156
-26.225375
-20.293159
-23.438322
-14.100202
-17.210810
-10.751751
-8.968988
-6.891636
-8.260821
-11.176494
-5.959168
-5.198429
-3.671303
-2.672760
-1.992482
-1.354147
1.266285
-2.191093
-26.225375
-23.438322
-3.607907
-6.013125
-6.751557
-4.423614
-2.327061
-1.669767
-0.364838
-4.801526
-7.866050
-8.889232
-4.818620
-2.929505
-2.515482
-7.101166
-9.464265
-9.730491
-1.039175
-0.193063
-1.453605
-0.391182
0.005578
1.112095
0.822630
2.104117
-11.707886
-12.188518
-15.897168
-15.634325
-12.477128
-12.623542
-15.631883
-15.666138
-18.877424
-18.767419
-19.206189
-17.088681
-19.836598
-22.165201
-21.905215
-18.753399
-21.814173
-21.839423
2.582801
1.373178
0.631810
1.466944
2.397903
0.276341
0.591037
0.877211
0.821225
1.218795
0.620975
0.450060
0.565428
1.789179
0.788091
1.092511
2.427225
3.577954
1.092511
0.788091
1.218795
1.789179
0.366780
1.422629
0.469590
0.271210
0.200019
0.565428
2.397903
3.577954
2.427225
1.466944
0.821225
0.877211
1.373178
2.582801
2.946304
1.706138
4.383215
4.827050
3.277194
0.559491
1.900477
0.622882
0.162643
0.450060
0.620975
0.591037
0.276341
0.631810
0.005578
0.822630
-0.391182
-1.453605
-1.039175
2.104117
-0.193063
1.112095
0.654898
1.996695
3.434185
1.996695
0.654898
5.026206
5.026206
3.434185
3.277194
1.900477
4.827050
4.383215
2.946304
0.622882
1.706138
0.559491
-21.241641
-20.999411
-23.372106
-23.560835
-19.167041
-21.241641
-19.167041
-18.874591
-18.233122
-20.515704
-26.074402
-26.074402
-23.560835
-25.915909
-23.020313
-25.629794
-23.372106
-20.999411
-25.915909
-25.629794
-23.020313
-18.874591
-20.515704
-18.233122
-17.088681
-19.836598
-15.897168
-19.206189
-22.575166
-25.281166
-22.165201
-24.961955
-18.877424
-21.905215
-15.634325
-11.707886
-12.188518
-15.631883
-18.767419
-24.759297
-21.814173
-24.735385
-22.575166
-25.281166
-24.961955
-24.759297
-24.735385
0.162643
0.200019
0.271210
0.366780
0.469590
1.422629
-24.951883
-21.839423
-18.753399
-15.666138
-12.477128
-12.623542
-8.889232
-9.464265
-7.866050
-4.801526
-6.013125
-9.730491
-6.751557
-7.101166
-4.818620
-4.423614
-3.607907
-2.515482
-2.929505
-2.327061
-0.364838
-1.669767
-24.951883
-4.751683
-4.070888
-2.580944
-3.028685
-6.435177
-5.473386
-7.392893
-5.536574
-8.063556
-6.971556
-4.671563
-3.416005
-1.284393
-1.498585
-3.497155
-1.076447
-2.148258
-0.873924
0.433706
0.467279
-3.984465
-6.251740
-8.449194
-7.090776
-9.673192
-10.494837
-9.220704
-3.823167
-5.912913
-4.867408
-2.775018
-2.980841
-2.139501
-1.723151
-8.376785
-7.144044
-9.632053
-10.941441
-11.150787
-9.763031
-0.671724
-1.298938
-0.463320
0.372575
0.400390
-1.505002
-0.871416
-0.243338
-0.440249
-0.010087
0.369444
0.359165
1.669585
1.944268
1.402115
1.156310
2.411278
2.933139
-11.225243
-13.949530
-11.984347
-13.924894
-12.350747
-15.706631
-16.314229
-17.619099
-17.286268
-15.620308
-14.048699
-12.568370
-14.133663
-12.642090
-15.650842
-17.208472
-17.208871
-15.671962
-18.803568
-19.005953
-20.414737
-20.303681
-18.754777
-19.488304
-20.712246
-18.455913
-15.848035
-17.737401
-20.192582
-21.210462
-22.013271
-22.356593
-23.579559
-23.353287
-21.840416
-20.296428
-18.754337
-21.818580
-23.294856
-23.389298
-21.854224
3.409348
1.911083
2.599234
0.950765
1.474278
0.408554
0.798193
1.886947
1.132232
1.374116
2.112369
2.992885
0.232519
0.474086
0.697699
0.555630
0.636511
0.880503
0.995934
0.696082
0.712231
1.018983
1.486006
0.595930
0.555225
0.493569
0.435490
0.315866
0.391469
0.664357
1.446478
2.111742
0.932776
0.536166
0.731664
1.259057
2.972555
1.914984
2.709523
4.036736
4.309508
0.932776
1.446478
1.259057
0.731664
1.018983
0.536166
0.664357
1.486006
0.995934
1.374116
2.112369
2.111742
0.418587
0.000000
0.316844
0.942516
1.914984
1.573902
0.517237
0.000000
0.000000
0.231801
0.391469
0.000000
0.176778
0.493569
0.712231
2.992885
1.886947
2.599234
2.972555
4.309508
4.036736
2.709523
1.132232
1.474278
0.880503
0.696082
0.697699
0.798193
1.911083
0.950765
1.156310
2.411278
3.409348
2.309343
3.631346
3.134933
1.815515
1.125745
5.223817
4.640870
4.025805
5.688326
4.953127
3.376046
2.571932
0.594964
0.000000
1.253658
1.960766
0.642892
0.000000
0.000000
0.157899
0.315866
0.435490
0.555225
0.595930
0.636511
0.555630
0.474086
0.408554
0.232519
-0.010087
0.369444
0.359165
-0.243338
-0.463320
0.372575
1.402115
-0.440249
-0.871416
-1.298938
-1.505002
-2.139501
-1.723151
-0.671724
1.669585
2.933139
0.400390
-0.873924
0.433706
1.944268
0.000000
1.317792
0.658896
2.699571
2.008620
4.207714
3.453358
1.317792
2.699571
1.960766
0.642892
0.000000
5.893774
5.050149
4.207714
5.893774
4.953127
3.376046
2.571932
4.025805
3.134933
1.815515
1.253658
5.688326
4.640870
3.631346
5.223817
2.309343
0.594964
0.000000
1.125745
1.573902
0.517237
0.000000
-21.151012
-22.374151
-21.271873
-20.170439
-22.160581
-19.899861
-20.787093
-23.489246
-23.213648
-24.625856
-24.795863
-23.584992
-19.202558
-18.236765
-19.059312
-20.170439
-22.374151
-21.151012
-19.059312
-18.236765
-17.935787
-18.604305
-19.333494
-17.258171
-17.737401
-20.192582
-21.750537
-26.094963
-26.013861
-27.393835
-24.795863
-27.393835
-26.013861
-23.489246
-25.785614
-27.239216
-24.315316
-22.802648
-25.457973
-26.961171
-22.160581
-24.625856
-23.213648
-20.787093
-19.899861
-27.239216
-25.785614
-24.315316
-26.961171
-25.457973
-22.802648
-21.750537
-18.604305
-17.935787
-19.333494
-17.258171
-15.848035
-16.314229
-18.455913
-19.488304
-21.210462
-17.619099
-13.949530
-15.706631
-19.005953
-20.712246
-22.356593
-23.931842
-25.111908
-26.623828
-23.579559
-22.013271
-24.841779
-26.315445
-20.414737
-17.286268
-18.803568
-21.840416
-23.353287
-13.924894
-15.620308
-11.984347
-11.225243
-9.673192
-10.494837
-12.350747
-17.208472
-14.048699
-15.650842
-18.754777
-20.303681
-24.721527
-26.121455
-23.294856
-21.818580
-24.810051
-26.115958
-23.931842
-26.623828
-25.111908
-26.315445
-24.841779
-26.121455
-24.721527
-26.115958
-24.810051
0.157899
0.000000
0.176778
0.000000
0.231801
0.000000
0.316844
0.000000
0.418587
0.942516
0.000000
-26.487719
-23.389298
-25.121314
-20.296428
-21.854224
-17.208871
-18.754337
-14.133663
-15.671962
-12.568370
-10.941441
-11.150787
-12.642090
-9.220704
-8.449194
-7.392893
-8.063556
-9.632053
-7.090776
-6.251740
-5.473386
-3.984465
-3.497155
-4.751683
-6.435177
-8.376785
-9.763031
-6.971556
-5.536574
-5.912913
-7.144044
-4.867408
-4.671563
-3.823167
-4.070888
-3.416005
-3.028685
-2.580944
-2.775018
-2.148258
-2.980841
-1.498585
-1.284393
-1.076447
0.467279
-26.487719
-25.121314
