# vtk DataFile Version 3.1
Diffusion Equation
ASCII
DATASET POLYDATA
POINTS 864 float
0.000000 0.000000 0.000000
4.000000 0.000000 0.000000
0.000000 4.000000 0.000000
4.000000 4.000000 0.000000
1.000000 1.000000 0.000000
3.000000 1.000000 0.000000
1.000000 3.000000 0.000000
3.000000 3.000000 0.000000
2.000000 0.000000 0.000000
4.000000 2.000000 0.000000
2.000000 4.000000 0.000000
0.000000 2.000000 0.000000
1.000000 2.000000 0.000000
3.000000 0.000000 0.000000
2.000000 3.000000 0.000000
0.000000 1.000000 0.000000
1.000000 0.000000 0.000000
3.000000 4.000000 0.000000
4.000000 3.000000 0.000000
2.000000 1.000000 0.000000
1.000000 4.000000 0.000000
3.000000 2.000000 0.000000
4.000000 1.000000 0.000000
0.000000 3.000000 0.000000
0.500000 2.500000 0.000000
0.500000 1.500000 0.000000
3.500000 0.500000 0.000000
2.500000 0.500000 0.000000
2.500000 3.500000 0.000000
1.500000 3.500000 0.000000
0.500000 0.500000 0.000000
1.500000 0.500000 0.000000
3.500000 3.500000 0.000000
3.500000 2.500000 0.000000
0.500000 3.500000 0.000000
3.500000 1.500000 0.000000
0.500000 2.000000 0.000000
1.000000 2.500000 0.000000
0.500000 3.000000 0.000000
0.000000 2.500000 0.000000
1.000000 1.500000 0.000000
0.000000 1.500000 0.000000
0.500000 1.000000 0.000000
3.000000 0.500000 0.000000
3.500000 0.000000 0.000000
4.000000 0.500000 0.000000
3.500000 1.000000 0.000000
2.500000 0.000000 0.000000
2.500000 1.000000 0.000000
2.000000 0.500000 0.000000
2.000000 3.500000 0.000000
2.500000 3.000000 0.000000
3.000000 3.500000 0.000000
2.500000 4.000000 0.000000
1.500000 3.000000 0.000000
1.500000 4.000000 0.000000
1.000000 3.500000 0.000000
0.000000 0.500000 0.000000
0.500000 0.000000 0.000000
1.000000 0.500000 0.000000
1.500000 0.000000 0.000000
1.500000 1.000000 0.000000
3.500000 4.000000 0.000000
3.500000 3.000000 0.000000
4.000000 3.500000 0.000000
4.000000 2.500000 0.000000
3.000000 2.500000 0.000000
3.500000 2.000000 0.000000
0.500000 4.000000 0.000000
0.000000 3.500000 0.000000
3.000000 1.500000 0.000000
4.000000 1.500000 0.000000
0.750000 2.250000 0.000000
0.250000 2.250000 0.000000
0.250000 1.750000 0.000000
0.750000 1.750000 0.000000
0.750000 2.750000 0.000000
0.250000 2.750000 0.000000
0.750000 3.250000 0.000000
0.250000 3.250000 0.000000
0.750000 1.250000 0.000000
0.250000 1.250000 0.000000
0.250000 0.750000 0.000000
0.750000 0.750000 0.000000
3.250000 0.250000 0.000000
3.250000 0.750000 0.000000
2.750000 0.750000 0.000000
2.750000 0.250000 0.000000
3.750000 0.250000 0.000000
3.750000 0.750000 0.000000
3.750000 1.250000 0.000000
3.250000 1.250000 0.000000
2.250000 0.250000 0.000000
2.250000 0.750000 0.000000
1.750000 0.750000 0.000000
1.750000 0.250000 0.000000
2.250000 3.250000 0.000000
2.250000 3.750000 0.000000
1.750000 3.750000 0.000000
1.750000 3.250000 0.000000
2.750000 3.250000 0.000000
2.750000 3.750000 0.000000
3.250000 3.250000 0.000000
3.250000 3.750000 0.000000
1.250000 3.250000 0.000000
1.250000 3.750000 0.000000
0.750000 3.750000 0.000000
0.250000 0.250000 0.000000
0.750000 0.250000 0.000000
1.250000 0.250000 0.000000
1.250000 0.750000 0.000000
3.750000 3.750000 0.000000
3.750000 3.250000 0.000000
3.250000 2.750000 0.000000
3.750000 2.750000 0.000000
3.750000 2.250000 0.000000
3.250000 2.250000 0.000000
3.250000 1.750000 0.000000
3.750000 1.750000 0.000000
0.250000 3.750000 0.000000
0.500000 2.250000 0.000000
0.750000 2.000000 0.000000
1.000000 2.250000 0.000000
0.750000 2.500000 0.000000
0.250000 2.000000 0.000000
0.250000 2.500000 0.000000
0.000000 2.250000 0.000000
0.500000 1.750000 0.000000
0.000000 1.750000 0.000000
0.250000 1.500000 0.000000
0.750000 1.500000 0.000000
1.000000 1.750000 0.000000
1.000000 2.750000 0.000000
0.750000 3.000000 0.000000
0.500000 2.750000 0.000000
0.250000 3.000000 0.000000
0.000000 2.750000 0.000000
0.500000 3.250000 0.000000
1.000000 3.250000 0.000000
0.750000 3.500000 0.000000
0.250000 3.500000 0.000000
0.000000 3.250000 0.000000
1.000000 1.250000 0.000000
0.500000 1.250000 0.000000
0.750000 1.000000 0.000000
0.000000 1.250000 0.000000
0.250000 1.000000 0.000000
0.500000 0.750000 0.000000
0.000000 0.750000 0.000000
0.250000 0.500000 0.000000
0.750000 0.500000 0.000000
1.000000 0.750000 0.000000
3.250000 0.500000 0.000000
3.000000 0.250000 0.000000
3.250000 0.000000 0.000000
3.500000 0.250000 0.000000
3.000000 0.750000 0.000000
3.500000 0.750000 0.000000
3.250000 1.000000 0.000000
2.750000 0.500000 0.000000
2.750000 1.000000 0.000000
2.500000 0.750000 0.000000
2.500000 0.250000 0.000000
2.750000 0.000000 0.000000
3.750000 0.000000 0.000000
4.000000 0.250000 0.000000
3.750000 0.500000 0.000000
4.000000 0.750000 0.000000
3.750000 1.000000 0.000000
3.500000 1.250000 0.000000
4.000000 1.250000 0.000000
3.750000 1.500000 0.000000
3.250000 1.500000 0.000000
3.000000 1.250000 0.000000
2.250000 0.000000 0.000000
2.250000 0.500000 0.000000
2.000000 0.250000 0.000000
2.250000 1.000000 0.000000
2.000000 0.750000 0.000000
1.750000 0.500000 0.000000
1.750000 1.000000 0.000000
1.500000 0.750000 0.000000
1.500000 0.250000 0.000000
1.750000 0.000000 0.000000
2.250000 3.500000 0.000000
2.000000 3.250000 0.000000
2.250000 3.000000 0.000000
2.500000 3.250000 0.000000
2.000000 3.750000 0.000000
2.500000 3.750000 0.000000
2.250000 4.000000 0.000000
1.750000 3.500000 0.000000
1.750000 4.000000 0.000000
1.500000 3.750000 0.000000
1.500000 3.250000 0.000000
1.750000 3.000000 0.000000
2.750000 3.000000 0.000000
3.000000 3.250000 0.000000
2.750000 3.500000 0.000000
3.000000 3.750000 0.000000
2.750000 4.000000 0.000000
3.250000 3.500000 0.000000
3.250000 3.000000 0.000000
3.500000 3.250000 0.000000
3.500000 3.750000 0.000000
3.250000 4.000000 0.000000
1.250000 3.000000 0.000000
1.250000 3.500000 0.000000
1.250000 4.000000 0.000000
1.000000 3.750000 0.000000
0.750000 4.000000 0.000000
0.500000 3.750000 0.000000
0.000000 0.250000 0.000000
0.250000 0.000000 0.000000
0.500000 0.250000 0.000000
0.750000 0.000000 0.000000
1.000000 0.250000 0.000000
1.250000 0.500000 0.000000
1.250000 0.000000 0.000000
1.250000 1.000000 0.000000
3.750000 4.000000 0.000000
3.750000 3.500000 0.000000
4.000000 3.750000 0.000000
3.750000 3.000000 0.000000
4.000000 3.250000 0.000000
3.500000 2.750000 0.000000
3.000000 2.750000 0.000000
3.250000 2.500000 0.000000
3.750000 2.500000 0.000000
4.000000 2.750000 0.000000
4.000000 2.250000 0.000000
3.500000 2.250000 0.000000
3.750000 2.000000 0.000000
3.000000 2.250000 0.000000
3.250000 2.000000 0.000000
3.500000 1.750000 0.000000
3.000000 1.750000 0.000000
4.000000 1.750000 0.000000
0.250000 4.000000 0.000000
0.000000 3.750000 0.000000
0.625000 2.125000 0.000000
0.625000 2.375000 0.000000
0.375000 2.375000 0.000000
0.375000 2.125000 0.000000
0.875000 2.125000 0.000000
0.625000 1.875000 0.000000
0.875000 1.875000 0.000000
0.875000 2.375000 0.000000
0.875000 2.625000 0.000000
0.625000 2.625000 0.000000
0.125000 2.125000 0.000000
0.125000 1.875000 0.000000
0.375000 1.875000 0.000000
0.125000 2.375000 0.000000
0.375000 2.625000 0.000000
0.125000 2.625000 0.000000
0.375000 1.625000 0.000000
0.625000 1.625000 0.000000
0.125000 1.625000 0.000000
0.125000 1.375000 0.000000
0.375000 1.375000 0.000000
0.875000 1.625000 0.000000
0.625000 1.375000 0.000000
0.875000 1.375000 0.000000
0.875000 2.875000 0.000000
0.625000 2.875000 0.000000
0.875000 3.125000 0.000000
0.625000 3.125000 0.000000
0.375000 2.875000 0.000000
0.125000 2.875000 0.000000
0.375000 3.125000 0.000000
0.125000 3.125000 0.000000
0.625000 3.375000 0.000000
0.375000 3.375000 0.000000
0.875000 3.375000 0.000000
1.125000 3.125000 0.000000
1.125000 3.375000 0.000000
0.875000 3.625000 0.000000
0.625000 3.625000 0.000000
0.125000 3.375000 0.000000
0.375000 3.625000 0.000000
0.125000 3.625000 0.000000
0.875000 1.125000 0.000000
0.625000 1.125000 0.000000
0.375000 1.125000 0.000000
0.625000 0.875000 0.000000
0.875000 0.875000 0.000000
0.125000 1.125000 0.000000
0.125000 0.875000 0.000000
0.375000 0.875000 0.000000
0.375000 0.625000 0.000000
0.625000 0.625000 0.000000
0.125000 0.625000 0.000000
0.125000 0.375000 0.000000
0.375000 0.375000 0.000000
0.875000 0.625000 0.000000
0.625000 0.375000 0.000000
0.875000 0.375000 0.000000
1.125000 0.625000 0.000000
1.125000 0.875000 0.000000
3.125000 0.375000 0.000000
3.375000 0.375000 0.000000
3.375000 0.625000 0.000000
3.125000 0.625000 0.000000
3.125000 0.125000 0.000000
2.875000 0.375000 0.000000
2.875000 0.125000 0.000000
3.375000 0.125000 0.000000
3.625000 0.125000 0.000000
3.625000 0.375000 0.000000
3.125000 0.875000 0.000000
2.875000 0.875000 0.000000
2.875000 0.625000 0.000000
3.375000 0.875000 0.000000
3.625000 0.625000 0.000000
3.625000 0.875000 0.000000
3.375000 1.125000 0.000000
3.125000 1.125000 0.000000
2.625000 0.625000 0.000000
2.625000 0.375000 0.000000
2.625000 0.875000 0.000000
2.375000 0.875000 0.000000
2.375000 0.625000 0.000000
2.625000 0.125000 0.000000
2.375000 0.375000 0.000000
2.375000 0.125000 0.000000
3.875000 0.125000 0.000000
3.875000 0.375000 0.000000
3.875000 0.625000 0.000000
3.875000 0.875000 0.000000
3.875000 1.125000 0.000000
3.625000 1.125000 0.000000
3.625000 1.375000 0.000000
3.375000 1.375000 0.000000
3.875000 1.375000 0.000000
3.875000 1.625000 0.000000
3.625000 1.625000 0.000000
3.125000 1.375000 0.000000
3.375000 1.625000 0.000000
3.125000 1.625000 0.000000
2.125000 0.125000 0.000000
2.125000 0.375000 0.000000
2.125000 0.625000 0.000000
1.875000 0.375000 0.000000
1.875000 0.125000 0.000000
2.125000 0.875000 0.000000
1.875000 0.875000 0.000000
1.875000 0.625000 0.000000
1.625000 0.625000 0.000000
1.625000 0.375000 0.000000
1.625000 0.875000 0.000000
1.375000 0.875000 0.000000
1.375000 0.625000 0.000000
1.625000 0.125000 0.000000
1.375000 0.375000 0.000000
1.375000 0.125000 0.000000
2.125000 3.375000 0.000000
2.375000 3.375000 0.000000
2.375000 3.625000 0.000000
2.125000 3.625000 0.000000
2.125000 3.125000 0.000000
1.875000 3.375000 0.000000
1.875000 3.125000 0.000000
2.375000 3.125000 0.000000
2.625000 3.125000 0.000000
2.625000 3.375000 0.000000
2.125000 3.875000 0.000000
[...]
POINT_DATA 864
SCALARS Temperature float
LOOKUP_TABLE default
0.000000
0.000000
-27.353721
-27.353721
3.401027
3.401027
-14.503545
-14.503545
0.000000
-4.006990
-27.640032
-4.006990
-0.586816
0.000000
-18.498072
0.370921
0.000000
-26.677978
-14.334512
5.903376
-26.677978
-0.586816
0.370921
-14.334512
-7.943215
-0.198473
0.819612
2.444540
-22.200255
-22.200255
0.819612
2.444540
-20.547669
-7.943215
-20.547669
-0.198473
-3.187310
-5.614410
-14.177395
-8.579581
2.404323
-1.020621
1.028230
1.661546
0.000000
0.505221
1.028230
0.000000
5.474844
2.704811
-22.626727
-17.874883
-21.156017
-27.336058
-17.874883
-27.336058
-21.156017
0.505221
0.000000
1.661546
0.000000
5.474844
-26.301780
-14.177395
-20.505092
-8.579581
-5.614410
-3.187310
-26.301780
-20.505092
2.404323
-1.020621
-4.337723
-5.922722
-2.100306
-0.394571
-10.331091
-11.251280
-17.608473
-17.404548
1.643285
0.050838
0.682033
1.675143
0.616816
1.675143
3.313353
1.031135
0.329745
0.682033
0.050838
1.643285
1.287803
4.125818
4.125818
1.287803
-20.294240
-24.956354
-24.956354
-20.294240
-19.146095
-24.347142
-17.608473
-23.660377
-19.146095
-24.347142
-23.660377
0.329745
0.616816
1.031135
3.313353
-23.537372
-17.404548
-10.331091
-11.251280
-5.922722
-4.337723
-0.394571
-2.100306
-23.537372
-5.348348
-2.125858
-2.823016
-7.057603
-3.804766
-8.425597
-6.108815
-1.470116
-2.307481
-0.817601
0.864424
1.150830
-9.151108
-14.085619
-10.931065
-14.290057
-11.354448
-17.430275
-18.178876
-20.746591
-20.498681
-17.409241
3.162485
0.629926
1.911209
-0.137715
0.532066
1.052028
0.559868
0.584506
1.195530
2.514584
1.195530
0.827248
0.000000
0.442055
2.514584
1.052028
1.911209
2.109918
4.820157
3.840081
1.190431
0.000000
0.000000
0.291353
0.584506
0.559868
0.532066
0.629926
-0.137715
-0.817601
0.864424
3.162485
0.000000
2.640886
1.320160
5.802321
4.215922
2.640886
5.802321
3.840081
1.190431
0.000000
-22.518387
-20.428846
-18.350201
-19.877404
-25.043751
-24.708288
-27.560184
-22.518387
-27.560184
-24.708288
-19.877404
-18.350201
-16.913391
-18.178876
-21.707638
-23.961689
-27.015639
-20.746591
-14.085619
-17.430275
-23.513322
-26.414246
-16.913391
-21.707638
-27.015639
-23.961689
-26.414246
-23.513322
0.291353
0.000000
0.442055
0.000000
0.827248
2.109918
0.000000
4.820157
-26.436041
-20.498681
-23.647161
-14.290057
-17.409241
-10.931065
-9.151108
-7.057603
-8.425597
-11.354448
-6.108815
-5.348348
-3.804766
-2.823016
-2.125858
-1.470116
1.150830
-2.307481
-26.436041
-23.647161
-3.749750
-6.171099
-6.909125
-4.565372
-2.468973
-1.794475
-0.489399
-4.959848
-8.040033
-9.062242
-4.960324
-3.054519
-2.640376
-7.258488
-9.636337
-9.902047
-1.146382
-0.299705
-1.561155
-0.480852
-0.083421
1.005941
0.734872
2.017678
-11.897279
-12.375191
-16.099703
-15.832254
-12.662018
-12.807575
-15.827344
-15.860479
-19.083242
-18.970762
-19.415966
-17.299915
-20.051643
-22.379169
-22.115940
-18.955559
-22.022659
-22.046782
2.518039
1.304721
0.561052
1.416710
2.353660
0.204514
0.536521
0.823987
0.784316
1.184430
0.582917
0.427614
0.543736
1.759185
0.767989
1.074891
2.403338
3.545622
1.074891
0.767989
1.184430
1.759185
0.360953
1.408114
0.464725
0.264586
0.192863
0.543736
2.353660
3.545622
2.403338
1.416710
0.784316
0.823987
1.304721
2.518039
2.928102
1.694582
4.360565
4.809686
3.262768
0.555546
1.891063
0.619623
0.155229
0.427614
0.582917
0.536521
0.204514
0.561052
-0.083421
0.734872
-0.480852
-1.561155
-1.146382
2.017678
-0.299705
1.005941
0.651995
1.988367
3.421576
1.988367
0.651995
5.011200
5.011200
3.421576
3.262768
1.891063
4.809686
4.360565
2.928102
0.619623
1.694582
0.555546
-21.466865
-21.222897
-23.596352
-23.786531
-19.391911
-21.466865
-19.391911
-19.097459
-18.451706
-20.735722
-26.300415
-26.300415
-23.786531
-26.140638
-23.241804
-25.852133
-23.596352
-21.222897
-26.140638
-25.852133
-23.241804
-19.097459
-20.735722
-18.451706
-17.299915
-20.051643
-16.099703
-19.415966
-22.792986
-25.500393
-22.379169
-25.177905
-19.083242
-22.115940
-15.832254
-11.897279
-12.375191
-15.827344
-18.970762
-24.972378
-22.022659
-24.946398
-22.792986
-25.500393
-25.177905
-24.972378
-24.946398
0.155229
0.192863
0.264586
0.360953
0.464725
1.408114
-25.161826
-22.046782
-18.955559
-15.860479
-12.662018
-12.807575
-9.062242
-9.636337
-8.040033
-4.959848
-6.171099
-9.902047
-6.909125
-7.258488
-4.960324
-4.565372
-3.749750
-2.640376
-3.054519
-2.468973
-0.489399
-1.794475
-25.161826
-4.901699
-4.212666
-2.714321
-3.170547
-6.592914
-5.631536
-7.558506
-5.686361
-8.228535
-7.128951
-4.813267
-3.549428
-1.417734
-1.640487
-3.647359
-1.201050
-2.273043
-0.989693
0.318224
0.342758
-4.142819
-6.417939
-8.622707
-7.264932
-9.854840
-10.674860
-9.393179
-3.956622
-6.062557
-5.009084
-2.899966
-3.105851
-2.255841
-1.839271
-8.541394
-7.301311
-9.803780
-11.120138
-11.328801
-9.934495
-0.778647
-1.406339
-0.561449
0.275300
0.294044
-1.612581
-0.970037
-0.332741
-0.529992
-0.090787
0.289615
0.270744
1.573111
1.838209
1.315083
1.078217
2.335387
2.846987
-11.415835
-14.146496
-12.172256
-14.117575
-12.536379
-15.906471
-16.520467
-17.825712
-17.488519
-15.816776
-14.239164
-12.752694
-14.323117
-12.825989
-15.845567
-17.408191
-17.407416
-15.866138
-19.007945
-19.213525
-20.623317
-20.509900
-18.957346
-19.700582
-20.924392
-18.669088
-16.057719
-17.952732
-20.410229
-21.427026
-22.225475
-22.572421
-23.794741
-23.565460
-22.049854
-20.501486
-18.956321
-22.026331
-23.504894
-23.598242
-22.061411
3.346339
1.844327
2.545995
0.880997
1.415230
0.337132
0.736346
1.839190
1.080249
1.332086
2.075650
2.953731
0.160573
0.411018
0.643663
0.500969
0.590344
0.835600
0.960104
0.658451
0.683049
0.991896
1.453579
0.557739
0.525071
0.471405
0.412955
0.300988
0.377103
0.643352
1.422793
2.084669
0.913811
0.522864
0.719979
1.242953
2.944230
1.895733
2.688682
4.009930
4.274543
0.913811
1.422793
1.242953
0.719979
0.991896
0.522864
0.643352
1.453579
0.960104
1.332086
2.075650
2.084669
0.413232
0.000000
0.310590
0.932808
1.895733
1.560940
0.512853
0.000000
0.000000
0.224877
0.377103
0.000000
0.169461
0.471405
0.683049
2.953731
1.839190
2.545995
2.944230
4.274543
4.009930
2.688682
1.080249
1.415230
0.835600
0.658451
0.643663
0.736346
1.844327
0.880997
1.078217
2.335387
3.346339
2.294289
3.610530
3.118876
1.805156
1.117925
5.200467
4.621298
4.009592
5.670567
4.937259
3.362765
2.559817
0.591401
0.000000
1.247231
1.952031
0.639856
0.000000
0.000000
0.150454
0.300988
0.412955
0.525071
0.557739
0.590344
0.500969
0.411018
0.337132
0.160573
-0.090787
0.289615
0.270744
-0.332741
-0.561449
0.275300
1.315083
-0.529992
-0.970037
-1.406339
-1.612581
-2.255841
-1.839271
-0.778647
1.573111
2.846987
0.294044
-0.989693
0.318224
1.838209
0.000000
1.312082
0.656038
2.688912
2.000428
4.193632
3.440973
1.312082
2.688912
1.952031
0.639856
0.000000
5.878456
5.035428
4.193632
5.878456
4.937259
3.362765
2.559817
4.009592
3.118876
1.805156
1.247231
5.670567
4.621298
3.610530
5.200467
2.294289
0.591401
0.000000
1.117925
1.560940
0.512853
0.000000
-21.375551
-22.599581
-21.497279
-20.395419
-22.384426
-20.122954
-21.009024
-23.714359
-23.436629
-24.850362
-25.021716
-23.810838
-19.427638
-18.461549
-19.283407
-20.395419
-22.599581
-21.375551
-19.283407
-18.461549
-18.158526
-18.825317
-19.552686
-17.476448
-17.952732
-20.410229
-21.971309
-26.321106
-26.239351
-27.619858
-25.021716
-27.619858
-26.239351
-23.714359
-26.009233
-27.463976
-24.537296
-23.022347
-25.678781
-27.183588
-22.384426
-24.850362
-23.436629
-21.009024
-20.122954
-27.463976
-26.009233
-24.537296
-27.183588
-25.678781
-23.022347
-21.971309
-18.825317
-18.158526
-19.552686
-17.476448
-16.057719
-16.520467
-18.669088
-19.700582
-21.427026
-17.825712
-14.146496
-15.906471
-19.213525
-20.924392
-22.572421
-24.150508
-25.329446
-26.843198
-23.794741
-22.225475
-25.056182
-26.531607
-20.623317
-17.488519
-19.007945
-22.049854
-23.565460
-14.117575
-15.816776
-12.172256
-11.415835
-9.854840
-10.674860
-12.536379
-17.408191
-14.239164
-15.845567
-18.957346
-20.509900
-24.933426
-26.334794
-23.504894
-22.026331
-25.020366
-26.327254
-24.150508
-26.843198
-25.329446
-26.531607
-25.056182
-26.334794
-24.933426
-26.327254
-25.020366
0.150454
0.000000
0.169461
0.000000
0.224877
0.000000
0.310590
0.000000
0.413232
0.932808
0.000000
-26.697953
-23.598242
-25.331090
-20.501486
-22.061411
-17.407416
-18.956321
-14.323117
-15.866138
-12.752694
-11.120138
-11.328801
-12.825989
-9.393179
-8.622707
-7.558506
-8.228535
-9.803780
-7.264932
-6.417939
-5.631536
-4.142819
-3.647359
-4.901699
-6.592914
-8.541394
-9.934495
-7.128951
-5.686361
-6.062557
-7.301311
-5.009084
-4.813267
-3.956622
-4.212666
-3.549428
-3.170547
-2.714321
-2.899966
-2.273043
-3.105851
-1.640487
-1.417734
-1.201050
0.342758
-26.697953
-25.331090
