# vtk DataFile Version 3.1
Diffusion Equation
ASCII
DATASET POLYDATA
POINTS 864 float
0.000000 0.000000 0.000000
4.000000 0.000000 0.000000
0.000000 4.000000 0.000000
4.000000 4.000000 0.000000
1.000000 1.000000 0.000000
3.000000 1.000000 0.000000
1.000000 3.000000 0.000000
3.000000 3.000000 0.000000
2.000000 0.000000 0.000000
4.000000 2.000000 0.000000
2.000000 4.000000 0.000000
0.000000 2.000000 0.000000
1.000000 2.000000 0.000000
3.000000 0.000000 0.000000
2.000000 3.000000 0.000000
0.000000 1.000000 0.000000
1.000000 0.000000 0.000000
3.000000 4.000000 0.000000
4.000000 3.000000 0.000000
2.000000 1.000000 0.000000
1.000000 4.000000 0.000000
3.000000 2.000000 0.000000
4.000000 1.000000 0.000000
0.000000 3.000000 0.000000
0.500000 2.500000 0.000000
0.500000 1.500000 0.000000
3.500000 0.500000 0.000000
2.500000 0.500000 0.000000
2.500000 3.500000 0.000000
1.500000 3.500000 0.000000
0.500000 0.500000 0.000000
1.500000 0.500000 0.000000
3.500000 3.500000 0.000000
3.500000 2.500000 0.000000
0.500000 3.500000 0.000000
3.500000 1.500000 0.000000
0.500000 2.000000 0.000000
1.000000 2.500000 0.000000
0.500000 3.000000 0.000000
0.000000 2.500000 0.000000
1.000000 1.500000 0.000000
0.000000 1.500000 0.000000
0.500000 1.000000 0.000000
3.000000 0.500000 0.000000
3.500000 0.000000 0.000000
4.000000 0.500000 0.000000
3.500000 1.000000 0.000000
2.500000 0.000000 0.000000
2.500000 1.000000 0.000000
2.000000 0.500000 0.000000
2.000000 3.500000 0.000000
2.500000 3.000000 0.000000
3.000000 3.500000 0.000000
2.500000 4.000000 0.000000
1.500000 3.000000 0.000000
1.500000 4.000000 0.000000
1.000000 3.500000 0.000000
0.000000 0.500000 0.000000
0.500000 0.000000 0.000000
1.000000 0.500000 0.000000
1.500000 0.000000 0.000000
1.500000 1.000000 0.000000
3.500000 4.000000 0.000000
3.500000 3.000000 0.000000
4.000000 3.500000 0.000000
4.000000 2.500000 0.000000
3.000000 2.500000 0.000000
3.500000 2.000000 0.000000
0.500000 4.000000 0.000000
0.000000 3.500000 0.000000
3.000000 1.500000 0.000000
4.000000 1.500000 0.000000
0.750000 2.250000 0.000000
0.250000 2.250000 0.000000
0.250000 1.750000 0.000000
0.750000 1.750000 0.000000
0.750000 2.750000 0.000000
0.250000 2.750000 0.000000
0.750000 3.250000 0.000000
0.250000 3.250000 0.000000
0.750000 1.250000 0.000000
0.250000 1.250000 0.000000
0.250000 0.750000 0.000000
0.750000 0.750000 0.000000
3.250000 0.250000 0.000000
3.250000 0.750000 0.000000
2.750000 0.750000 0.000000
2.750000 0.250000 0.000000
3.750000 0.250000 0.000000
3.750000 0.750000 0.000000
3.750000 1.250000 0.000000
3.250000 1.250000 0.000000
2.250000 0.250000 0.000000
2.250000 0.750000 0.000000
1.750000 0.750000 0.000000
1.750000 0.250000 0.000000
2.250000 3.250000 0.000000
2.250000 3.750000 0.000000
1.750000 3.750000 0.000000
1.750000 3.250000 0.000000
2.750000 3.250000 0.000000
2.750000 3.750000 0.000000
3.250000 3.250000 0.000000
3.250000 3.750000 0.000000
1.250000 3.250000 0.000000
1.250000 3.750000 0.000000
0.750000 3.750000 0.000000
0.250000 0.250000 0.000000
0.750000 0.250000 0.000000
1.250000 0.250000 0.000000
1.250000 0.750000 0.000000
3.750000 3.750000 0.000000
3.750000 3.250000 0.000000
3.250000 2.750000 0.000000
3.750000 2.750000 0.000000
3.750000 2.250000 0.000000
3.250000 2.250000 0.000000
3.250000 1.750000 0.000000
3.750000 1.750000 0.000000
0.250000 3.750000 0.000000
0.500000 2.250000 0.000000
0.750000 2.000000 0.000000
1.000000 2.250000 0.000000
0.750000 2.500000 0.000000
0.250000 2.000000 0.000000
0.250000 2.500000 0.000000
0.000000 2.250000 0.000000
0.500000 1.750000 0.000000
0.000000 1.750000 0.000000
0.250000 1.500000 0.000000
0.750000 1.500000 0.000000
1.000000 1.750000 0.000000
1.000000 2.750000 0.000000
0.750000 3.000000 0.000000
0.500000 2.750000 0.000000
0.250000 3.000000 0.000000
0.000000 2.750000 0.000000
0.500000 3.250000 0.000000
1.000000 3.250000 0.000000
0.750000 3.500000 0.000000
0.250000 3.500000 0.000000
0.000000 3.250000 0.000000
1.000000 1.250000 0.000000
0.500000 1.250000 0.000000
0.750000 1.000000 0.000000
0.000000 1.250000 0.000000
0.250000 1.000000 0.000000
0.500000 0.750000 0.000000
0.000000 0.750000 0.000000
0.250000 0.500000 0.000000
0.750000 0.500000 0.000000
1.000000 0.750000 0.000000
3.250000 0.500000 0.000000
3.000000 0.250000 0.000000
3.250000 0.000000 0.000000
3.500000 0.250000 0.000000
3.000000 0.750000 0.000000
3.500000 0.750000 0.000000
3.250000 1.000000 0.000000
2.750000 0.500000 0.000000
2.750000 1.000000 0.000000
2.500000 0.750000 0.000000
2.500000 0.250000 0.000000
2.750000 0.000000 0.000000
3.750000 0.000000 0.000000
4.000000 0.250000 0.000000
3.750000 0.500000 0.000000
4.000000 0.750000 0.000000
3.750000 1.000000 0.000000
3.500000 1.250000 0.000000
4.000000 1.250000 0.000000
3.750000 1.500000 0.000000
3.250000 1.500000 0.000000
3.000000 1.250000 0.000000
2.250000 0.000000 0.000000
2.250000 0.500000 0.000000
2.000000 0.250000 0.000000
2.250000 1.000000 0.000000
2.000000 0.750000 0.000000
1.750000 0.500000 0.000000
1.750000 1.000000 0.000000
1.500000 0.750000 0.000000
1.500000 0.250000 0.000000
1.750000 0.000000 0.000000
2.250000 3.500000 0.000000
2.000000 3.250000 0.000000
2.250000 3.000000 0.000000
2.500000 3.250000 0.000000
2.000000 3.750000 0.000000
2.500000 3.750000 0.000000
2.250000 4.000000 0.000000
1.750000 3.500000 0.000000
1.750000 4.000000 0.000000
1.500000 3.750000 0.000000
1.500000 3.250000 0.000000
1.750000 3.000000 0.000000
2.750000 3.000000 0.000000
3.000000 3.250000 0.000000
2.750000 3.500000 0.000000
3.000000 3.750000 0.000000
2.750000 4.000000 0.000000
3.250000 3.500000 0.000000
3.250000 3.000000 0.000000
3.500000 3.250000 0.000000
3.500000 3.750000 0.000000
3.250000 4.000000 0.000000
1.250000 3.000000 0.000000
1.250000 3.500000 0.000000
1.250000 4.000000 0.000000
1.000000 3.750000 0.000000
0.750000 4.000000 0.000000
0.500000 3.750000 0.000000
0.000000 0.250000 0.000000
0.250000 0.000000 0.000000
0.500000 0.250000 0.000000
0.750000 0.000000 0.000000
1.000000 0.250000 0.000000
1.250000 0.500000 0.000000
1.250000 0.000000 0.000000
1.250000 1.000000 0.000000
3.750000 4.000000 0.000000
3.750000 3.500000 0.000000
4.000000 3.750000 0.000000
3.750000 3.000000 0.000000
4.000000 3.250000 0.000000
3.500000 2.750000 0.000000
3.000000 2.750000 0.000000
3.250000 2.500000 0.000000
3.750000 2.500000 0.000000
4.000000 2.750000 0.000000
4.000000 2.250000 0.000000
3.500000 2.250000 0.000000
3.750000 2.000000 0.000000
3.000000 2.250000 0.000000
3.250000 2.000000 0.000000
3.500000 1.750000 0.000000
3.000000 1.750000 0.000000
4.000000 1.750000 0.000000
0.250000 4.000000 0.000000
0.000000 3.750000 0.000000
0.625000 2.125000 0.000000
0.625000 2.375000 0.000000
0.375000 2.375000 0.000000
0.375000 2.125000 0.000000
0.875000 2.125000 0.000000
0.625000 1.875000 0.000000
0.875000 1.875000 0.000000
0.875000 2.375000 0.000000
0.875000 2.625000 0.000000
0.625000 2.625000 0.000000
0.125000 2.125000 0.000000
0.125000 1.875000 0.000000
0.375000 1.875000 0.000000
0.125000 2.375000 0.000000
0.375000 2.625000 0.000000
0.125000 2.625000 0.000000
0.375000 1.625000 0.000000
0.625000 1.625000 0.000000
0.125000 1.625000 0.000000
0.125000 1.375000 0.000000
0.375000 1.375000 0.000000
0.875000 1.625000 0.000000
0.625000 1.375000 0.000000
0.875000 1.375000 0.000000
0.875000 2.875000 0.000000
0.625000 2.875000 0.000000
0.875000 3.125000 0.000000
0.625000 3.125000 0.000000
0.375000 2.875000 0.000000
0.125000 2.875000 0.000000
0.375000 3.125000 0.000000
0.125000 3.125000 0.000000
0.625000 3.375000 0.000000
0.375000 3.375000 0.000000
0.875000 3.375000 0.000000
1.125000 3.125000 0.000000
1.125000 3.375000 0.000000
0.875000 3.625000 0.000000
0.625000 3.625000 0.000000
0.125000 3.375000 0.000000
0.375000 3.625000 0.000000
0.125000 3.625000 0.000000
0.875000 1.125000 0.000000
0.625000 1.125000 0.000000
0.375000 1.125000 0.000000
0.625000 0.875000 0.000000
0.875000 0.875000 0.000000
0.125000 1.125000 0.000000
0.125000 0.875000 0.000000
0.375000 0.875000 0.000000
0.375000 0.625000 0.000000
0.625000 0.625000 0.000000
0.125000 0.625000 0.000000
0.125000 0.375000 0.000000
0.375000 0.375000 0.000000
0.875000 0.625000 0.000000
0.625000 0.375000 0.000000
0.875000 0.375000 0.000000
1.125000 0.625000 0.000000
1.125000 0.875000 0.000000
3.125000 0.375000 0.000000
3.375000 0.375000 0.000000
3.375000 0.625000 0.000000
3.125000 0.625000 0.000000
3.125000 0.125000 0.000000
2.875000 0.375000 0.000000
2.875000 0.125000 0.000000
3.375000 0.125000 0.000000
3.625000 0.125000 0.000000
3.625000 0.375000 0.000000
3.125000 0.875000 0.000000
2.875000 0.875000 0.000000
2.875000 0.625000 0.000000
3.375000 0.875000 0.000000
3.625000 0.625000 0.000000
3.625000 0.875000 0.000000
3.375000 1.125000 0.000000
3.125000 1.125000 0.000000
2.625000 0.625000 0.000000
2.625000 0.375000 0.000000
2.625000 0.875000 0.000000
2.375000 0.875000 0.000000
2.375000 0.625000 0.000000
2.625000 0.125000 0.000000
2.375000 0.375000 0.000000
2.375000 0.125000 0.000000
3.875000 0.125000 0.000000
3.875000 0.375000 0.000000
3.875000 0.625000 0.000000
3.875000 0.875000 0.000000
3.875000 1.125000 0.000000
3.625000 1.125000 0.000000
3.625000 1.375000 0.000000
3.375000 1.375000 0.000000
3.875000 1.375000 0.000000
3.875000 1.625000 0.000000
3.625000 1.625000 0.000000
3.125000 1.375000 0.000000
3.375000 1.625000 0.000000
3.125000 1.625000 0.000000
2.125000 0.125000 0.000000
2.125000 0.375000 0.000000
2.125000 0.625000 0.000000
1.875000 0.375000 0.000000
1.875000 0.125000 0.000000
2.125000 0.875000 0.000000
1.875000 0.875000 0.000000
1.875000 0.625000 0.000000
1.625000 0.625000 0.000000
1.625000 0.375000 0.000000
1.625000 0.875000 0.000000
1.375000 0.875000 0.000000
1.375000 0.625000 0.000000
1.625000 0.125000 0.000000
1.375000 0.375000 0.000000
1.375000 0.125000 0.000000
2.125000 3.375000 0.000000
2.375000 3.375000 0.000000
2.375000 3.625000 0.000000
2.125000 3.625000 0.000000
2.125000 3.125000 0.000000
1.875000 3.375000 0.000000
1.875000 3.125000 0.000000
2.375000 3.125000 0.000000
2.625000 3.125000 0.000000
2.625000 3.375000 0.000000
2.125000 3.875000 0.000000
[...]
POINT_DATA 864
SCALARS Temperature float
LOOKUP_TABLE default
0.000000
0.000000
-27.285892
-27.285892
3.416249
3.416249
-14.438588
-14.438588
0.000000
-3.963904
-27.567010
-3.963904
-0.543769
0.000000
-18.425423
0.391329
0.000000
-26.607679
-14.273389
5.908228
-26.607679
-0.543769
0.391329
-14.273389
-7.889858
-0.166921
0.828745
2.448867
-22.128429
-22.128429
0.828745
2.448867
-20.480761
-7.889858
-20.480761
-0.166921
-3.144242
-5.560722
-14.115604
-8.526454
2.435423
-0.988761
1.047823
1.668499
0.000000
0.514994
1.047823
0.000000
5.481324
2.708193
-22.553885
-17.803581
-21.086832
-27.263838
-17.803581
-27.263838
-21.086832
0.514994
0.000000
1.668499
0.000000
5.481324
-26.233273
-14.115604
-20.438938
-8.526454
-5.560722
-3.144242
-26.233273
-20.438938
2.435423
-0.988761
-4.289257
-5.874393
-2.062775
-0.357250
-10.272704
-11.193727
-17.542562
-17.340310
1.668137
0.076786
0.696789
1.687976
0.620870
1.687976
3.321168
1.033951
0.334487
0.696789
0.076786
1.668137
1.289733
4.130618
4.130618
1.289733
-20.221835
-24.883605
-24.883605
-20.221835
-19.076221
-24.275993
-17.542562
-23.591422
-19.076221
-24.275993
-23.591422
0.334487
0.620870
1.033951
3.321168
-23.469784
-17.340310
-10.272704
-11.193727
-5.874393
-4.289257
-0.357250
-2.062775
-23.469784
-5.299956
-2.082805
-2.774514
-7.004030
-3.761685
-8.372409
-6.060511
-1.432682
-2.269912
-0.785823
0.895684
1.188098
-9.092321
-14.022848
-10.873184
-14.228774
-11.297006
-17.365451
-18.111186
-20.678724
-20.432340
-17.345189
3.186785
0.655451
1.929522
-0.111627
0.552282
1.066138
0.574821
0.594126
1.203779
2.525183
1.203779
0.830708
0.000000
0.446544
2.525183
1.066138
1.929522
2.115417
4.829195
3.845948
1.192706
0.000000
0.000000
0.296176
0.594126
0.574821
0.552282
0.655451
-0.111627
-0.785823
0.895684
3.186785
0.000000
2.644502
1.321974
5.807554
4.220385
2.644502
5.807554
3.845948
1.192706
0.000000
-22.445802
-20.356139
-18.277876
-19.805925
-24.970781
-24.636175
-27.487370
-22.445802
-27.487370
-24.636175
-19.805925
-18.277876
-16.844060
-18.111186
-21.637011
-23.891665
-26.944308
-20.678724
-14.022848
-17.365451
-23.445208
-26.344941
-16.844060
-21.637011
-26.944308
-23.891665
-26.344941
-23.445208
0.296176
0.000000
0.446544
0.000000
0.830708
2.115417
0.000000
4.829195
-26.368040
-20.432340
-23.579749
-14.228774
-17.345189
-10.873184
-9.092321
-7.004030
-8.372409
-11.297006
-6.060511
-5.299956
-3.761685
-2.774514
-2.082805
-1.432682
1.188098
-2.269912
-26.368040
-23.579749
-3.703964
-6.120106
-6.858264
-4.519614
-2.423165
-1.754221
-0.449192
-4.908743
-7.983873
-9.006396
-4.914583
-3.014165
-2.600061
-7.207706
-9.580794
-9.846670
-1.111777
-0.265282
-1.526439
-0.451907
-0.054693
1.040206
0.763200
2.045580
-11.836145
-12.314934
-16.034326
-15.768364
-12.602337
-12.748170
-15.764251
-15.797748
-19.016805
-18.905124
-19.348252
-17.231730
-19.982228
-22.310102
-22.047920
-18.890303
-21.955361
-21.979848
2.538943
1.326818
0.583892
1.432925
2.367941
0.227699
0.554118
0.841167
0.796230
1.195523
0.595202
0.434859
0.550738
1.768867
0.774478
1.080579
2.411049
3.556058
1.080579
0.774478
1.195523
1.768867
0.362834
1.412800
0.466295
0.266724
0.195173
0.550738
2.367941
3.556058
2.411049
1.432925
0.796230
0.841167
1.326818
2.538943
2.933977
1.698312
4.367877
4.815291
3.267425
0.556820
1.894102
0.620675
0.157622
0.434859
0.595202
0.554118
0.227699
0.583892
-0.054693
0.763200
-0.451907
-1.526439
-1.111777
2.045580
-0.265282
1.040206
0.652932
1.991055
3.425646
1.991055
0.652932
5.016044
5.016044
3.425646
3.267425
1.894102
4.815291
4.367877
2.933977
0.620675
1.698312
0.556820
-21.394164
-21.150757
-23.523967
-23.713678
-19.319325
-21.394164
-19.319325
-19.025519
-18.381149
-20.664702
-26.227460
-26.227460
-23.713678
-26.068098
-23.170309
-25.780364
-23.523967
-21.150757
-26.068098
-25.780364
-23.170309
-19.025519
-20.664702
-18.381149
-17.231730
-19.982228
-16.034326
-19.348252
-22.722675
-25.429629
-22.310102
-25.108198
-19.016805
-22.047920
-15.768364
-11.836145
-12.314934
-15.764251
-18.905124
-24.903597
-21.955361
-24.878285
-22.722675
-25.429629
-25.108198
-24.903597
-24.878285
0.157622
0.195173
0.266724
0.362834
0.466295
1.412800
-25.094059
-21.979848
-18.890303
-15.797748
-12.602337
-12.748170
-9.006396
-9.580794
-7.983873
-4.908743
-6.120106
-9.846670
-6.858264
-7.207706
-4.914583
-4.519614
-3.703964
-2.600061
-3.014165
-2.423165
-0.449192
-1.754221
-25.094059
-4.853275
-4.166901
-2.671268
-3.124755
-6.541998
-5.580486
-7.505047
-5.638011
-8.175281
-7.078145
-4.767526
-3.506360
-1.374693
-1.594682
-3.598874
-1.160829
-2.232764
-0.952324
0.355500
0.382952
-4.091704
-6.364292
-8.566698
-7.208716
-9.796206
-10.616750
-9.337506
-3.913544
-6.014253
-4.963352
-2.859634
-3.065499
-2.218288
-1.801788
-8.488260
-7.250547
-9.748348
-11.062456
-11.271340
-9.879148
-0.744133
-1.371671
-0.529774
0.306699
0.328372
-1.577855
-0.938203
-0.303882
-0.501024
-0.064738
0.315383
0.299286
1.604252
1.872444
1.343176
1.103425
2.359884
2.874796
-11.354313
-14.082917
-12.111601
-14.055379
-12.476459
-15.841964
-16.453895
-17.759019
-17.423234
-15.753358
-14.177684
-12.693196
-14.261963
-12.766628
-15.782712
-17.343723
-17.343327
-15.803459
-18.941974
-19.146523
-20.555989
-20.443334
-18.891958
-19.632060
-20.855913
-18.600277
-15.990035
-17.883225
-20.339975
-21.357121
-22.156978
-22.502753
-23.725282
-23.496973
-21.982249
-20.435295
-18.891122
-21.959271
-23.437096
-23.530797
-21.994533
3.366678
1.865875
2.563180
0.903517
1.434290
0.360186
0.756310
1.854605
1.097029
1.345653
2.087503
2.966370
0.183797
0.431376
0.661105
0.518613
0.605246
0.850094
0.971670
0.670598
0.692468
1.000639
1.464046
0.570066
0.534804
0.478559
0.420229
0.305791
0.381740
0.650133
1.430438
2.093408
0.919932
0.527158
0.723751
1.248151
2.953373
1.901947
2.695409
4.018583
4.285829
0.919932
1.430438
1.248151
0.723751
1.000639
0.527158
0.650133
1.464046
0.971670
1.345653
2.087503
2.093408
0.414961
0.000000
0.312609
0.935941
1.901947
1.565124
0.514268
0.000000
0.000000
0.227112
0.381740
0.000000
0.171823
0.478559
0.692468
2.966370
1.854605
2.563180
2.953373
4.285829
4.018583
2.695409
1.097029
1.434290
0.850094
0.670598
0.661105
0.756310
1.865875
0.903517
1.103425
2.359884
3.366678
2.299148
3.617249
3.124059
1.808500
1.120450
5.208004
4.627616
4.014825
5.676299
4.942381
3.367052
2.563728
0.592551
0.000000
1.249306
1.954851
0.640836
0.000000
0.000000
0.152857
0.305791
0.420229
0.534804
0.570066
0.605246
0.518613
0.431376
0.360186
0.183797
-0.064738
0.315383
0.299286
-0.303882
-0.529774
0.306699
1.343176
-0.501024
-0.938203
-1.371671
-1.577855
-2.218288
-1.801788
-0.744133
1.604252
2.874796
0.328372
-0.952324
0.355500
1.872444
0.000000
1.313925
0.656961
2.692352
2.003072
4.198177
3.444971
1.313925
2.692352
1.954851
0.640836
0.000000
5.883400
5.040179
4.198177
5.883400
4.942381
3.367052
2.563728
4.014825
3.124059
1.808500
1.249306
5.676299
4.627616
3.617249
5.208004
2.299148
0.592551
0.000000
1.120450
1.565124
0.514268
0.000000
-21.303072
-22.526814
-21.424520
-20.322798
-22.312171
-20.050942
-20.937386
-23.641695
-23.364652
-24.777893
-24.948813
-23.737937
-19.354985
-18.388990
-19.211071
-20.322798
-22.526814
-21.303072
-19.211071
-18.388990
-18.086628
-18.753977
-19.481933
-17.405990
-17.883225
-20.339975
-21.900046
-26.248109
-26.166565
-27.546899
-24.948813
-27.546899
-26.166565
-23.641695
-25.937051
-27.391426
-24.465643
-22.951430
-25.607506
-27.111794
-22.312171
-24.777893
-23.364652
-20.937386
-20.050942
-27.391426
-25.937051
-24.465643
-27.111794
-25.607506
-22.951430
-21.900046
-18.753977
-18.086628
-19.481933
-17.405990
-15.990035
-16.453895
-18.600277
-19.632060
-21.357121
-17.759019
-14.082917
-15.841964
-19.146523
-20.855913
-22.502753
-24.079924
-25.259227
-26.772387
-23.725282
-22.156978
-24.986975
-26.461831
-20.555989
-17.423234
-18.941974
-21.982249
-23.496973
-14.055379
-15.753358
-12.111601
-11.354313
-9.796206
-10.616750
-12.476459
-17.343723
-14.177684
-15.782712
-18.891958
-20.443334
-24.865027
-26.265930
-23.437096
-21.959271
-24.952478
-26.259049
-24.079924
-26.772387
-25.259227
-26.461831
-24.986975
-26.265930
-24.865027
-26.259049
-24.952478
0.152857
0.000000
0.171823
0.000000
0.227112
0.000000
0.312609
0.000000
0.414961
0.935941
0.000000
-26.630092
-23.530797
-25.263376
-20.435295
-21.994533
-17.343327
-18.891122
-14.261963
-15.803459
-12.693196
-11.062456
-11.271340
-12.766628
-9.337506
-8.566698
-7.505047
-8.175281
-9.748348
-7.208716
-6.364292
-5.580486
-4.091704
-3.598874
-4.853275
-6.541998
-8.488260
-9.879148
-7.078145
-5.638011
-6.014253
-7.250547
-4.963352
-4.767526
-3.913544
-4.166901
-3.506360
-3.124755
-2.671268
-2.859634
-2.232764
-3.065499
-1.594682
-1.374693
-1.160829
0.382952
-26.630092
-25.263376
