# vtk DataFile Version 3.1
Diffusion Equation
ASCII
DATASET POLYDATA
POINTS 864 float
0.000000 0.000000 0.000000
4.000000 0.000000 0.000000
0.000000 4.000000 0.000000
4.000000 4.000000 0.000000
1.000000 1.000000 0.000000
3.000000 1.000000 0.000000
1.000000 3.000000 0.000000
3.000000 3.000000 0.000000
2.000000 0.000000 0.000000
4.000000 2.000000 0.000000
2.000000 4.000000 0.000000
0.000000 2.000000 0.000000
1.000000 2.000000 0.000000
3.000000 0.000000 0.000000
2.000000 3.000000 0.000000
0.000000 1.000000 0.000000
1.000000 0.000000 0.000000
3.000000 4.000000 0.000000
4.000000 3.000000 0.000000
2.000000 1.000000 0.000000
1.000000 4.000000 0.000000
3.000000 2.000000 0.000000
4.000000 1.000000 0.000000
0.000000 3.000000 0.000000
0.500000 2.500000 0.000000
0.500000 1.500000 0.000000
3.500000 0.500000 0.000000
2.500000 0.500000 0.000000
2.500000 3.500000 0.000000
1.500000 3.500000 0.000000
0.500000 0.500000 0.000000
1.500000 0.500000 0.000000
3.500000 3.500000 0.000000
3.500000 2.500000 0.000000
0.500000 3.500000 0.000000
3.500000 1.500000 0.000000
0.500000 2.000000 0.000000
1.000000 2.500000 0.000000
0.500000 3.000000 0.000000
0.000000 2.500000 0.000000
1.000000 1.500000 0.000000
0.000000 1.500000 0.000000
0.500000 1.000000 0.000000
3.000000 0.500000 0.000000
3.500000 0.000000 0.000000
4.000000 0.500000 0.000000
3.500000 1.000000 0.000000
2.500000 0.000000 0.000000
2.500000 1.000000 0.000000
2.000000 0.500000 0.000000
2.000000 3.500000 0.000000
2.500000 3.000000 0.000000
3.000000 3.500000 0.000000
2.500000 4.000000 0.000000
1.500000 3.000000 0.000000
1.500000 4.000000 0.000000
1.000000 3.500000 0.000000
0.000000 0.500000 0.000000
0.500000 0.000000 0.000000
1.000000 0.500000 0.000000
1.500000 0.000000 0.000000
1.500000 1.000000 0.000000
3.500000 4.000000 0.000000
3.500000 3.000000 0.000000
4.000000 3.500000 0.000000
4.000000 2.500000 0.000000
3.000000 2.500000 0.000000
3.500000 2.000000 0.000000
0.500000 4.000000 0.000000
0.000000 3.500000 0.000000
3.000000 1.500000 0.000000
4.000000 1.500000 0.000000
0.750000 2.250000 0.000000
0.250000 2.250000 0.000000
0.250000 1.750000 0.000000
0.750000 1.750000 0.000000
0.750000 2.750000 0.000000
0.250000 2.750000 0.000000
0.750000 3.250000 0.000000
0.250000 3.250000 0.000000
0.750000 1.250000 0.000000
0.250000 1.250000 0.000000
0.250000 0.750000 0.000000
0.750000 0.750000 0.000000
3.250000 0.250000 0.000000
3.250000 0.750000 0.000000
2.750000 0.750000 0.000000
2.750000 0.250000 0.000000
3.750000 0.250000 0.000000
3.750000 0.750000 0.000000
3.750000 1.250000 0.000000
3.250000 1.250000 0.000000
2.250000 0.250000 0.000000
2.250000 0.750000 0.000000
1.750000 0.750000 0.000000
1.750000 0.250000 0.000000
2.250000 3.250000 0.000000
2.250000 3.750000 0.000000
1.750000 3.750000 0.000000
1.750000 3.250000 0.000000
2.750000 3.250000 0.000000
2.750000 3.750000 0.000000
3.250000 3.250000 0.000000
3.250000 3.750000 0.000000
1.250000 3.250000 0.000000
1.250000 3.750000 0.000000
0.750000 3.750000 0.000000
0.250000 0.250000 0.000000
0.750000 0.250000 0.000000
1.250000 0.250000 0.000000
1.250000 0.750000 0.000000
3.750000 3.750000 0.000000
3.750000 3.250000 0.000000
3.250000 2.750000 0.000000
3.750000 2.750000 0.000000
3.750000 2.250000 0.000000
3.250000 2.250000 0.000000
3.250000 1.750000 0.000000
3.750000 1.750000 0.000000
0.250000 3.750000 0.000000
0.500000 2.250000 0.000000
0.750000 2.000000 0.000000
1.000000 2.250000 0.000000
0.750000 2.500000 0.000000
0.250000 2.000000 0.000000
0.250000 2.500000 0.000000
0.000000 2.250000 0.000000
0.500000 1.750000 0.000000
0.000000 1.750000 0.000000
0.250000 1.500000 0.000000
0.750000 1.500000 0.000000
1.000000 1.750000 0.000000
1.000000 2.750000 0.000000
0.750000 3.000000 0.000000
0.500000 2.750000 0.000000
0.250000 3.000000 0.000000
0.000000 2.750000 0.000000
0.500000 3.250000 0.000000
1.000000 3.250000 0.000000
0.750000 3.500000 0.000000
0.250000 3.500000 0.000000
0.000000 3.250000 0.000000
1.000000 1.250000 0.000000
0.500000 1.250000 0.000000
0.750000 1.000000 0.000000
0.000000 1.250000 0.000000
0.250000 1.000000 0.000000
0.500000 0.750000 0.000000
0.000000 0.750000 0.000000
0.250000 0.500000 0.000000
0.750000 0.500000 0.000000
1.000000 0.750000 0.000000
3.250000 0.500000 0.000000
3.000000 0.250000 0.000000
3.250000 0.000000 0.000000
3.500000 0.250000 0.000000
3.000000 0.750000 0.000000
3.500000 0.750000 0.000000
3.250000 1.000000 0.000000
2.750000 0.500000 0.000000
2.750000 1.000000 0.000000
2.500000 0.750000 0.000000
2.500000 0.250000 0.000000
2.750000 0.000000 0.000000
3.750000 0.000000 0.000000
4.000000 0.250000 0.000000
3.750000 0.500000 0.000000
4.000000 0.750000 0.000000
3.750000 1.000000 0.000000
3.500000 1.250000 0.000000
4.000000 1.250000 0.000000
3.750000 1.500000 0.000000
3.250000 1.500000 0.000000
3.000000 1.250000 0.000000
2.250000 0.000000 0.000000
2.250000 0.500000 0.000000
2.000000 0.250000 0.000000
2.250000 1.000000 0.000000
2.000000 0.750000 0.000000
1.750000 0.500000 0.000000
1.750000 1.000000 0.000000
1.500000 0.750000 0.000000
1.500000 0.250000 0.000000
1.750000 0.000000 0.000000
2.250000 3.500000 0.000000
2.000000 3.250000 0.000000
2.250000 3.000000 0.000000
2.500000 3.250000 0.000000
2.000000 3.750000 0.000000
2.500000 3.750000 0.000000
2.250000 4.000000 0.000000
1.750000 3.500000 0.000000
1.750000 4.000000 0.000000
1.500000 3.750000 0.000000
1.500000 3.250000 0.000000
1.750000 3.000000 0.000000
2.750000 3.000000 0.000000
3.000000 3.250000 0.000000
2.750000 3.500000 0.000000
3.000000 3.750000 0.000000
2.750000 4.000000 0.000000
3.250000 3.500000 0.000000
3.250000 3.000000 0.000000
3.500000 3.250000 0.000000
3.500000 3.750000 0.000000
3.250000 4.000000 0.000000
1.250000 3.000000 0.000000
1.250000 3.500000 0.000000
1.250000 4.000000 0.000000
1.000000 3.750000 0.000000
0.750000 4.000000 0.000000
0.500000 3.750000 0.000000
0.000000 0.250000 0.000000
0.250000 0.000000 0.000000
0.500000 0.250000 0.000000
0.750000 0.000000 0.000000
1.000000 0.250000 0.000000
1.250000 0.500000 0.000000
1.250000 0.000000 0.000000
1.250000 1.000000 0.000000
3.750000 4.000000 0.000000
3.750000 3.500000 0.000000
4.000000 3.750000 0.000000
3.750000 3.000000 0.000000
4.000000 3.250000 0.000000
3.500000 2.750000 0.000000
3.000000 2.750000 0.000000
3.250000 2.500000 0.000000
3.750000 2.500000 0.000000
4.000000 2.750000 0.000000
4.000000 2.250000 0.000000
3.500000 2.250000 0.000000
3.750000 2.000000 0.000000
3.000000 2.250000 0.000000
3.250000 2.000000 0.000000
3.500000 1.750000 0.000000
3.000000 1.750000 0.000000
4.000000 1.750000 0.000000
0.250000 4.000000 0.000000
0.000000 3.750000 0.000000
0.625000 2.125000 0.000000
0.625000 2.375000 0.000000
0.375000 2.375000 0.000000
0.375000 2.125000 0.000000
0.875000 2.125000 0.000000
0.625000 1.875000 0.000000
0.875000 1.875000 0.000000
0.875000 2.375000 0.000000
0.875000 2.625000 0.000000
0.625000 2.625000 0.000000
0.125000 2.125000 0.000000
0.125000 1.875000 0.000000
0.375000 1.875000 0.000000
0.125000 2.375000 0.000000
0.375000 2.625000 0.000000
0.125000 2.625000 0.000000
0.375000 1.625000 0.000000
0.625000 1.625000 0.000000
0.125000 1.625000 0.000000
0.125000 1.375000 0.000000
0.375000 1.375000 0.000000
0.875000 1.625000 0.000000
0.625000 1.375000 0.000000
0.875000 1.375000 0.000000
0.875000 2.875000 0.000000
0.625000 2.875000 0.000000
0.875000 3.125000 0.000000
0.625000 3.125000 0.000000
0.375000 2.875000 0.000000
0.125000 2.875000 0.000000
0.375000 3.125000 0.000000
0.125000 3.125000 0.000000
0.625000 3.375000 0.000000
0.375000 3.375000 0.000000
0.875000 3.375000 0.000000
1.125000 3.125000 0.000000
1.125000 3.375000 0.000000
0.875000 3.625000 0.000000
0.625000 3.625000 0.000000
0.125000 3.375000 0.000000
0.375000 3.625000 0.000000
0.125000 3.625000 0.000000
0.875000 1.125000 0.000000
0.625000 1.125000 0.000000
0.375000 1.125000 0.000000
0.625000 0.875000 0.000000
0.875000 0.875000 0.000000
0.125000 1.125000 0.000000
0.125000 0.875000 0.000000
0.375000 0.875000 0.000000
0.375000 0.625000 0.000000
0.625000 0.625000 0.000000
0.125000 0.625000 0.000000
0.125000 0.375000 0.000000
0.375000 0.375000 0.000000
0.875000 0.625000 0.000000
0.625000 0.375000 0.000000
0.875000 0.375000 0.000000
1.125000 0.625000 0.000000
1.125000 0.875000 0.000000
3.125000 0.375000 0.000000
3.375000 0.375000 0.000000
3.375000 0.625000 0.000000
3.125000 0.625000 0.000000
3.125000 0.125000 0.000000
2.875000 0.375000 0.000000
2.875000 0.125000 0.000000
3.375000 0.125000 0.000000
3.625000 0.125000 0.000000
3.625000 0.375000 0.000000
3.125000 0.875000 0.000000
2.875000 0.875000 0.000000
2.875000 0.625000 0.000000
3.375000 0.875000 0.000000
3.625000 0.625000 0.000000
3.625000 0.875000 0.000000
3.375000 1.125000 0.000000
3.125000 1.125000 0.000000
2.625000 0.625000 0.000000
2.625000 0.375000 0.000000
2.625000 0.875000 0.000000
2.375000 0.875000 0.000000
2.375000 0.625000 0.000000
2.625000 0.125000 0.000000
2.375000 0.375000 0.000000
2.375000 0.125000 0.000000
3.875000 0.125000 0.000000
3.875000 0.375000 0.000000
3.875000 0.625000 0.000000
3.875000 0.875000 0.000000
3.875000 1.125000 0.000000
3.625000 1.125000 0.000000
3.625000 1.375000 0.000000
3.375000 1.375000 0.000000
3.875000 1.375000 0.000000
3.875000 1.625000 0.000000
3.625000 1.625000 0.000000
3.125000 1.375000 0.000000
3.375000 1.625000 0.000000
3.125000 1.625000 0.000000
2.125000 0.125000 0.000000
2.125000 0.375000 0.000000
2.125000 0.625000 0.000000
1.875000 0.375000 0.000000
1.875000 0.125000 0.000000
2.125000 0.875000 0.000000
1.875000 0.875000 0.000000
1.875000 0.625000 0.000000
1.625000 0.625000 0.000000
1.625000 0.375000 0.000000
1.625000 0.875000 0.000000
1.375000 0.875000 0.000000
1.375000 0.625000 0.000000
1.625000 0.125000 0.000000
1.375000 0.375000 0.000000
1.375000 0.125000 0.000000
2.125000 3.375000 0.000000
2.375000 3.375000 0.000000
2.375000 3.625000 0.000000
2.125000 3.625000 0.000000
2.125000 3.125000 0.000000
1.875000 3.375000 0.000000
1.875000 3.125000 0.000000
2.375000 3.125000 0.000000
2.625000 3.125000 0.000000
2.625000 3.375000 0.000000
2.125000 3.875000 0.000000
[...]
POINT_DATA 864
SCALARS Temperature float
LOOKUP_TABLE default
0.000000
0.000000
-26.732937
-26.732937
3.540336
3.540336
-13.909044
-13.909044
0.000000
-3.612657
-26.971720
-3.612657
-0.192846
0.000000
-17.833163
0.557701
0.000000
-26.034588
-13.775093
5.947775
-26.034588
-0.192846
0.557701
-13.775093
-7.454875
0.090294
0.903198
2.484140
-21.542884
-21.542884
0.903198
2.484140
-19.935314
-7.454875
-19.935314
0.090294
-2.793148
-5.123036
-13.611870
-8.093349
2.688960
-0.729034
1.207548
1.725184
0.000000
0.594667
1.207548
0.000000
5.534152
2.735771
-21.960057
-17.222307
-20.522821
-26.675076
-17.222307
-26.675076
-20.522821
0.594667
0.000000
1.725184
0.000000
5.534152
-25.674779
-13.611870
-19.899630
-8.093349
-5.123036
-2.793148
-25.674779
-19.899630
2.688960
-0.729034
-3.894145
-5.480403
-1.756807
-0.053000
-9.796717
-10.724542
-17.005236
-16.816623
1.870732
0.288321
0.817078
1.792596
0.653919
1.792596
3.384880
1.056908
0.373144
0.817078
0.288321
1.870732
1.305471
4.169748
4.169748
1.305471
-19.631565
-24.290533
-24.290533
-19.631565
-18.506594
-23.695961
-17.005236
-23.029290
-18.506594
-23.695961
-23.029290
0.373144
0.653919
1.056908
3.384880
-22.918784
-16.816623
-9.796717
-10.724542
-5.480403
-3.894145
-0.053000
-1.756807
-22.918784
-4.905447
-1.731830
-2.379118
-6.567289
-3.410481
-7.938804
-5.666717
-1.127512
-1.963641
-0.526760
1.150516
1.491915
-8.613076
-13.511116
-10.401322
-13.729172
-10.828723
-16.836986
-17.559360
-20.125451
-19.891513
-16.823021
3.384884
0.863535
2.078817
0.101051
0.717094
1.181167
0.696721
0.672546
1.271031
2.611594
1.271031
0.858915
0.000000
0.483142
2.611594
1.181167
2.078817
2.160250
4.902872
3.893776
1.211248
0.000000
0.000000
0.335498
0.672546
0.696721
0.717094
0.863535
0.101051
-0.526760
1.150516
3.384884
0.000000
2.673986
1.336765
5.850218
4.256767
2.673986
5.850218
3.893776
1.211248
0.000000
-21.854071
-19.763407
-17.688260
-19.223211
-24.375910
-24.048287
-26.893771
-21.854071
-26.893771
-24.048287
-19.223211
-17.688260
-16.278859
-17.559360
-21.061238
-23.320810
-26.362795
-20.125451
-13.511116
-16.836986
-22.889931
-25.779948
-16.278859
-21.061238
-26.362795
-23.320810
-25.779948
-22.889931
0.335498
0.000000
0.483142
0.000000
0.858915
2.160250
0.000000
4.902872
-25.813676
-19.891513
-23.030195
-13.729172
-16.823021
-10.401322
-8.613076
-6.567289
-7.938804
-10.828723
-5.666717
-4.905447
-3.410481
-2.379118
-1.731830
-1.127512
1.491915
-1.963641
-25.813676
-23.030195
-3.330707
-5.704402
-6.443625
-4.146581
-2.049725
-1.426053
-0.121411
-4.492123
-7.526039
-8.551125
-4.541690
-2.685196
-2.271405
-6.793714
-9.127988
-9.395223
-0.829662
0.015345
-1.243423
-0.215942
0.179505
1.319548
0.994133
2.273042
-11.337762
-11.823708
-15.501358
-15.247519
-12.115802
-12.263891
-15.249898
-15.286342
-18.475199
-18.370032
-18.796226
-16.675873
-19.416341
-21.747050
-21.493401
-18.358324
-21.406734
-21.434187
2.709364
1.506962
0.770092
1.565116
2.484368
0.416710
0.697575
0.981224
0.893355
1.285952
0.695352
0.493927
0.607821
1.847796
0.827375
1.126946
2.473906
3.641139
1.126946
0.827375
1.285952
1.847796
0.378167
1.450995
0.479097
0.284155
0.214004
0.607821
2.484368
3.641139
2.473906
1.565116
0.893355
0.981224
1.506962
2.709364
2.981878
1.728720
4.427478
4.860982
3.305385
0.567199
1.918876
0.629250
0.177134
0.493927
0.695352
0.697575
0.416710
0.770092
0.179505
0.994133
-0.215942
-1.243423
-0.829662
2.273042
0.015345
1.319548
0.660570
2.012972
3.458827
2.012972
0.660570
5.055532
5.055532
3.458827
3.305385
1.918876
4.860982
4.427478
2.981878
0.629250
1.728720
0.567199
-20.801494
-20.562659
-22.933869
-23.119765
-18.727586
-20.801494
-18.727586
-18.439046
-17.805949
-20.085730
-25.632711
-25.632711
-23.119765
-25.476728
-22.587460
-25.195282
-22.933869
-20.562659
-25.476728
-25.195282
-22.587460
-18.439046
-20.085730
-17.805949
-16.675873
-19.416341
-15.501358
-18.796226
-22.149488
-24.852737
-21.747050
-24.539928
-18.475199
-21.493401
-15.247519
-11.337762
-11.823708
-15.249898
-18.370032
-24.342878
-21.406734
-24.323008
-22.149488
-24.852737
-24.539928
-24.342878
-24.323008
0.177134
0.214004
0.284155
0.378167
0.479097
1.450995
-24.541597
-21.434187
-18.358324
-15.286342
-12.115802
-12.263891
-8.551125
-9.127988
-7.526039
-4.492123
-5.704402
-9.395223
-6.443625
-6.793714
-4.541690
-4.146581
-3.330707
-2.271405
-2.685196
-2.049725
-0.121411
-1.426053
-24.541597
-4.458512
-3.793816
-2.320289
-2.751447
-6.126915
-5.164317
-7.069242
-5.243851
-7.741143
-6.663965
-4.394635
-3.155258
-1.023808
-1.221270
-3.203614
-0.832938
-1.904393
-0.647679
0.659389
0.710626
-3.674999
-5.926941
-8.110103
-6.750429
-9.318201
-10.143022
-8.883639
-3.562361
-5.620468
-4.590534
-2.530836
-2.736536
-1.912140
-1.496220
-8.055093
-6.836702
-9.296452
-10.592219
-10.802901
-9.427943
-0.462767
-1.089046
-0.271549
0.562678
0.608218
-1.294763
-0.678682
-0.068622
-0.264869
0.147623
0.525450
0.531963
1.858121
2.151537
1.572200
1.308926
2.559588
3.101504
-10.852775
-13.564605
-11.617121
-13.548343
-11.987973
-15.316089
-15.911184
-17.215320
-16.891015
-15.236354
-13.676478
-12.208151
-13.763418
-12.282699
-15.270296
-16.818167
-16.820861
-15.292488
-18.404160
-18.600302
-20.007114
-19.900673
-18.358902
-19.073456
-20.297656
-18.039310
-15.438255
-17.316584
-19.767239
-20.787236
-21.598567
-21.934807
-23.159035
-22.938644
-21.431117
-19.895690
-18.359604
-21.412578
-22.884385
-22.980963
-21.449324
3.532484
2.041541
2.703279
1.087110
1.589675
0.548132
0.919057
1.980276
1.233820
1.456253
2.184128
3.069402
0.373122
0.597339
0.803302
0.662453
0.726732
0.968255
1.065957
0.769624
0.769262
1.071918
1.549379
0.670565
0.614156
0.536884
0.479529
0.344942
0.419543
0.705407
1.492765
2.164649
0.969839
0.562162
0.754500
1.290528
3.027911
1.952605
2.750251
4.089121
4.377838
0.969839
1.492765
1.290528
0.754500
1.071918
0.562162
0.705407
1.549379
1.065957
1.456253
2.184128
2.164649
0.429051
0.000000
0.329067
0.961489
1.952605
1.599233
0.525806
0.000000
0.000000
0.245333
0.419543
0.000000
0.191078
0.536884
0.769262
3.069402
1.980276
2.703279
3.027911
4.377838
4.089121
2.750251
1.233820
1.589675
0.968255
0.769624
0.803302
0.919057
2.041541
1.087110
1.308926
2.559588
3.532484
2.338764
3.672026
3.166312
1.835757
1.141027
5.269449
4.679118
4.057491
5.723032
4.984138
3.402001
2.595610
0.601928
0.000000
1.266218
1.977836
0.648826
0.000000
0.000000
0.172449
0.344942
0.479529
0.614156
0.670565
0.726732
0.662453
0.597339
0.548132
0.373122
0.147623
0.525450
0.531963
-0.068622
-0.271549
0.562678
1.572200
-0.264869
-0.678682
-1.089046
-1.294763
-1.912140
-1.496220
-0.462767
1.858121
3.101504
0.608218
-0.647679
0.659389
2.151537
0.000000
1.328951
0.664479
2.720400
2.024629
4.235234
3.477561
1.328951
2.720400
1.977836
0.648826
0.000000
5.923710
5.078918
4.235234
5.923710
4.984138
3.402001
2.595610
4.057491
3.166312
1.835757
1.266218
5.723032
4.679118
3.672026
5.269449
2.338764
0.601928
0.000000
1.141027
1.599233
0.525806
0.000000
-20.712203
-21.933601
-20.831367
-19.730768
-21.723127
-19.463877
-20.353379
-23.049314
-22.777882
-24.187110
-24.354484
-23.143628
-18.762690
-17.797475
-18.621370
-19.730768
-21.933601
-20.712203
-18.621370
-17.797475
-17.500494
-18.172388
-18.905132
-16.831600
-17.316584
-19.767239
-21.319087
-25.653017
-25.573190
-26.952125
-24.354484
-26.952125
-25.573190
-23.049314
-25.348600
-26.799974
-23.881506
-22.373297
-25.026453
-26.526509
-21.723127
-24.187110
-22.777882
-20.353379
-19.463877
-26.799974
-25.348600
-23.881506
-26.526509
-25.026453
-22.373297
-21.319087
-18.172388
-17.500494
-18.905132
-16.831600
-15.438255
-15.911184
-18.039310
-19.073456
-20.787236
-17.215320
-13.564605
-15.316089
-18.600302
-20.297656
-21.934807
-23.504511
-24.686779
-26.195118
-23.159035
-21.598567
-24.422777
-25.893005
-20.007114
-16.891015
-18.404160
-21.431117
-22.938644
-13.548343
-15.236354
-11.617121
-10.852775
-9.318201
-10.143022
-11.987973
-16.818167
-13.676478
-15.270296
-18.358902
-19.900673
-24.307418
-25.704531
-22.884385
-21.412578
-24.399037
-25.703030
-23.504511
-26.195118
-24.686779
-25.893005
-24.422777
-25.704531
-24.307418
-25.703030
-24.399037
0.172449
0.000000
0.191078
0.000000
0.245333
0.000000
0.329067
0.000000
0.429051
0.961489
0.000000
-26.076865
-22.980963
-24.711353
-19.895690
-21.449324
-16.820861
-18.359604
-13.763418
-15.292488
-12.208151
-10.592219
-10.802901
-12.282699
-8.883639
-8.110103
-7.069242
-7.741143
-9.296452
-6.750429
-5.926941
-5.164317
-3.674999
-3.203614
-4.458512
-6.126915
-8.055093
-9.427943
-6.663965
-5.243851
-5.620468
-6.836702
-4.590534
-4.394635
-3.562361
-3.793816
-3.155258
-2.751447
-2.320289
-2.530836
-1.904393
-2.736536
-1.221270
-1.023808
-0.832938
0.710626
-26.076865
-24.711353
