# vtk DataFile Version 3.1
Diffusion Equation
ASCII
DATASET POLYDATA
POINTS 864 float
0.000000 0.000000 0.000000
4.000000 0.000000 0.000000
0.000000 4.000000 0.000000
4.000000 4.000000 0.000000
1.000000 1.000000 0.000000
3.000000 1.000000 0.000000
1.000000 3.000000 0.000000
3.000000 3.000000 0.000000
2.000000 0.000000 0.000000
4.000000 2.000000 0.000000
2.000000 4.000000 0.000000
0.000000 2.000000 0.000000
1.000000 2.000000 0.000000
3.000000 0.000000 0.000000
2.000000 3.000000 0.000000
0.000000 1.000000 0.000000
1.000000 0.000000 0.000000
3.000000 4.000000 0.000000
4.000000 3.000000 0.000000
2.000000 1.000000 0.000000
1.000000 4.000000 0.000000
3.000000 2.000000 0.000000
4.000000 1.000000 0.000000
0.000000 3.000000 0.000000
0.500000 2.500000 0.000000
0.500000 1.500000 0.000000
3.500000 0.500000 0.000000
2.500000 0.500000 0.000000
2.500000 3.500000 0.000000
1.500000 3.500000 0.000000
0.500000 0.500000 0.000000
1.500000 0.500000 0.000000
3.500000 3.500000 0.000000
3.500000 2.500000 0.000000
0.500000 3.500000 0.000000
3.500000 1.500000 0.000000
0.500000 2.000000 0.000000
1.000000 2.500000 0.000000
0.500000 3.000000 0.000000
0.000000 2.500000 0.000000
1.000000 1.500000 0.000000
0.000000 1.500000 0.000000
0.500000 1.000000 0.000000
3.000000 0.500000 0.000000
3.500000 0.000000 0.000000
4.000000 0.500000 0.000000
3.500000 1.000000 0.000000
2.500000 0.000000 0.000000
2.500000 1.000000 0.000000
2.000000 0.500000 0.000000
2.000000 3.500000 0.000000
2.500000 3.000000 0.000000
3.000000 3.500000 0.000000
2.500000 4.000000 0.000000
1.500000 3.000000 0.000000
1.500000 4.000000 0.000000
1.000000 3.500000 0.000000
0.000000 0.500000 0.000000
0.500000 0.000000 0.000000
1.000000 0.500000 0.000000
1.500000 0.000000 0.000000
1.500000 1.000000 0.000000
3.500000 4.000000 0.000000
3.500000 3.000000 0.000000
4.000000 3.500000 0.000000
4.000000 2.500000 0.000000
3.000000 2.500000 0.000000
3.500000 2.000000 0.000000
0.500000 4.000000 0.000000
0.000000 3.500000 0.000000
3.000000 1.500000 0.000000
4.000000 1.500000 0.000000
0.750000 2.250000 0.000000
0.250000 2.250000 0.000000
0.250000 1.750000 0.000000
0.750000 1.750000 0.000000
0.750000 2.750000 0.000000
0.250000 2.750000 0.000000
0.750000 3.250000 0.000000
0.250000 3.250000 0.000000
0.750000 1.250000 0.000000
0.250000 1.250000 0.000000
0.250000 0.750000 0.000000
0.750000 0.750000 0.000000
3.250000 0.250000 0.000000
3.250000 0.750000 0.000000
2.750000 0.750000 0.000000
2.750000 0.250000 0.000000
3.750000 0.250000 0.000000
3.750000 0.750000 0.000000
3.750000 1.250000 0.000000
3.250000 1.250000 0.000000
2.250000 0.250000 0.000000
2.250000 0.750000 0.000000
1.750000 0.750000 0.000000
1.750000 0.250000 0.000000
2.250000 3.250000 0.000000
2.250000 3.750000 0.000000
1.750000 3.750000 0.000000
1.750000 3.250000 0.000000
2.750000 3.250000 0.000000
2.750000 3.750000 0.000000
3.250000 3.250000 0.000000
3.250000 3.750000 0.000000
1.250000 3.250000 0.000000
1.250000 3.750000 0.000000
0.750000 3.750000 0.000000
0.250000 0.250000 0.000000
0.750000 0.250000 0.000000
1.250000 0.250000 0.000000
1.250000 0.750000 0.000000
3.750000 3.750000 0.000000
3.750000 3.250000 0.000000
3.250000 2.750000 0.000000
3.750000 2.750000 0.000000
3.750000 2.250000 0.000000
3.250000 2.250000 0.000000
3.250000 1.750000 0.000000
3.750000 1.750000 0.000000
0.250000 3.750000 0.000000
0.500000 2.250000 0.000000
0.750000 2.000000 0.000000
1.000000 2.250000 0.000000
0.750000 2.500000 0.000000
0.250000 2.000000 0.000000
0.250000 2.500000 0.000000
0.000000 2.250000 0.000000
0.500000 1.750000 0.000000
0.000000 1.750000 0.000000
0.250000 1.500000 0.000000
0.750000 1.500000 0.000000
1.000000 1.750000 0.000000
1.000000 2.750000 0.000000
0.750000 3.000000 0.000000
0.500000 2.750000 0.000000
0.250000 3.000000 0.000000
0.000000 2.750000 0.000000
0.500000 3.250000 0.000000
1.000000 3.250000 0.000000
0.750000 3.500000 0.000000
0.250000 3.500000 0.000000
0.000000 3.250000 0.000000
1.000000 1.250000 0.000000
0.500000 1.250000 0.000000
0.750000 1.000000 0.000000
0.000000 1.250000 0.000000
0.250000 1.000000 0.000000
0.500000 0.750000 0.000000
0.000000 0.750000 0.000000
0.250000 0.500000 0.000000
0.750000 0.500000 0.000000
1.000000 0.750000 0.000000
3.250000 0.500000 0.000000
3.000000 0.250000 0.000000
3.250000 0.000000 0.000000
3.500000 0.250000 0.000000
3.000000 0.750000 0.000000
3.500000 0.750000 0.000000
3.250000 1.000000 0.000000
2.750000 0.500000 0.000000
2.750000 1.000000 0.000000
2.500000 0.750000 0.000000
2.500000 0.250000 0.000000
2.750000 0.000000 0.000000
3.750000 0.000000 0.000000
4.000000 0.250000 0.000000
3.750000 0.500000 0.000000
4.000000 0.750000 0.000000
3.750000 1.000000 0.000000
3.500000 1.250000 0.000000
4.000000 1.250000 0.000000
3.750000 1.500000 0.000000
3.250000 1.500000 0.000000
3.000000 1.250000 0.000000
2.250000 0.000000 0.000000
2.250000 0.500000 0.000000
2.000000 0.250000 0.000000
2.250000 1.000000 0.000000
2.000000 0.750000 0.000000
1.750000 0.500000 0.000000
1.750000 1.000000 0.000000
1.500000 0.750000 0.000000
1.500000 0.250000 0.000000
1.750000 0.000000 0.000000
2.250000 3.500000 0.000000
2.000000 3.250000 0.000000
2.250000 3.000000 0.000000
2.500000 3.250000 0.000000
2.000000 3.750000 0.000000
2.500000 3.750000 0.000000
2.250000 4.000000 0.000000
1.750000 3.500000 0.000000
1.750000 4.000000 0.000000
1.500000 3.750000 0.000000
1.500000 3.250000 0.000000
1.750000 3.000000 0.000000
2.750000 3.000000 0.000000
3.000000 3.250000 0.000000
2.750000 3.500000 0.000000
3.000000 3.750000 0.000000
2.750000 4.000000 0.000000
3.250000 3.500000 0.000000
3.250000 3.000000 0.000000
3.500000 3.250000 0.000000
3.500000 3.750000 0.000000
3.250000 4.000000 0.000000
1.250000 3.000000 0.000000
1.250000 3.500000 0.000000
1.250000 4.000000 0.000000
1.000000 3.750000 0.000000
0.750000 4.000000 0.000000
0.500000 3.750000 0.000000
0.000000 0.250000 0.000000
0.250000 0.000000 0.000000
0.500000 0.250000 0.000000
0.750000 0.000000 0.000000
1.000000 0.250000 0.000000
1.250000 0.500000 0.000000
1.250000 0.000000 0.000000
1.250000 1.000000 0.000000
3.750000 4.000000 0.000000
3.750000 3.500000 0.000000
4.000000 3.750000 0.000000
3.750000 3.000000 0.000000
4.000000 3.250000 0.000000
3.500000 2.750000 0.000000
3.000000 2.750000 0.000000
3.250000 2.500000 0.000000
3.750000 2.500000 0.000000
4.000000 2.750000 0.000000
4.000000 2.250000 0.000000
3.500000 2.250000 0.000000
3.750000 2.000000 0.000000
3.000000 2.250000 0.000000
3.250000 2.000000 0.000000
3.500000 1.750000 0.000000
3.000000 1.750000 0.000000
4.000000 1.750000 0.000000
0.250000 4.000000 0.000000
0.000000 3.750000 0.000000
0.625000 2.125000 0.000000
0.625000 2.375000 0.000000
0.375000 2.375000 0.000000
0.375000 2.125000 0.000000
0.875000 2.125000 0.000000
0.625000 1.875000 0.000000
0.875000 1.875000 0.000000
0.875000 2.375000 0.000000
0.875000 2.625000 0.000000
0.625000 2.625000 0.000000
0.125000 2.125000 0.000000
0.125000 1.875000 0.000000
0.375000 1.875000 0.000000
0.125000 2.375000 0.000000
0.375000 2.625000 0.000000
0.125000 2.625000 0.000000
0.375000 1.625000 0.000000
0.625000 1.625000 0.000000
0.125000 1.625000 0.000000
0.125000 1.375000 0.000000
0.375000 1.375000 0.000000
0.875000 1.625000 0.000000
0.625000 1.375000 0.000000
0.875000 1.375000 0.000000
0.875000 2.875000 0.000000
0.625000 2.875000 0.000000
0.875000 3.125000 0.000000
0.625000 3.125000 0.000000
0.375000 2.875000 0.000000
0.125000 2.875000 0.000000
0.375000 3.125000 0.000000
0.125000 3.125000 0.000000
0.625000 3.375000 0.000000
0.375000 3.375000 0.000000
0.875000 3.375000 0.000000
1.125000 3.125000 0.000000
1.125000 3.375000 0.000000
0.875000 3.625000 0.000000
0.625000 3.625000 0.000000
0.125000 3.375000 0.000000
0.375000 3.625000 0.000000
0.125000 3.625000 0.000000
0.875000 1.125000 0.000000
0.625000 1.125000 0.000000
0.375000 1.125000 0.000000
0.625000 0.875000 0.000000
0.875000 0.875000 0.000000
0.125000 1.125000 0.000000
0.125000 0.875000 0.000000
0.375000 0.875000 0.000000
0.375000 0.625000 0.000000
0.625000 0.625000 0.000000
0.125000 0.625000 0.000000
0.125000 0.375000 0.000000
0.375000 0.375000 0.000000
0.875000 0.625000 0.000000
0.625000 0.375000 0.000000
0.875000 0.375000 0.000000
1.125000 0.625000 0.000000
1.125000 0.875000 0.000000
3.125000 0.375000 0.000000
3.375000 0.375000 0.000000
3.375000 0.625000 0.000000
3.125000 0.625000 0.000000
3.125000 0.125000 0.000000
2.875000 0.375000 0.000000
2.875000 0.125000 0.000000
3.375000 0.125000 0.000000
3.625000 0.125000 0.000000
3.625000 0.375000 0.000000
3.125000 0.875000 0.000000
2.875000 0.875000 0.000000
2.875000 0.625000 0.000000
3.375000 0.875000 0.000000
3.625000 0.625000 0.000000
3.625000 0.875000 0.000000
3.375000 1.125000 0.000000
3.125000 1.125000 0.000000
2.625000 0.625000 0.000000
2.625000 0.375000 0.000000
2.625000 0.875000 0.000000
2.375000 0.875000 0.000000
2.375000 0.625000 0.000000
2.625000 0.125000 0.000000
2.375000 0.375000 0.000000
2.375000 0.125000 0.000000
3.875000 0.125000 0.000000
3.875000 0.375000 0.000000
3.875000 0.625000 0.000000
3.875000 0.875000 0.000000
3.875000 1.125000 0.000000
3.625000 1.125000 0.000000
3.625000 1.375000 0.000000
3.375000 1.375000 0.000000
3.875000 1.375000 0.000000
3.875000 1.625000 0.000000
3.625000 1.625000 0.000000
3.125000 1.375000 0.000000
3.375000 1.625000 0.000000
3.125000 1.625000 0.000000
2.125000 0.125000 0.000000
2.125000 0.375000 0.000000
2.125000 0.625000 0.000000
1.875000 0.375000 0.000000
1.875000 0.125000 0.000000
2.125000 0.875000 0.000000
1.875000 0.875000 0.000000
1.875000 0.625000 0.000000
1.625000 0.625000 0.000000
1.625000 0.375000 0.000000
1.625000 0.875000 0.000000
1.375000 0.875000 0.000000
1.375000 0.625000 0.000000
1.625000 0.125000 0.000000
1.375000 0.375000 0.000000
1.375000 0.125000 0.000000
2.125000 3.375000 0.000000
2.375000 3.375000 0.000000
2.375000 3.625000 0.000000
2.125000 3.625000 0.000000
2.125000 3.125000 0.000000
1.875000 3.375000 0.000000
1.875000 3.125000 0.000000
2.375000 3.125000 0.000000
2.625000 3.125000 0.000000
2.625000 3.375000 0.000000
2.125000 3.875000 0.000000
[...]
POINT_DATA 864
SCALARS Temperature float
LOOKUP_TABLE default
0.000000
0.000000
-27.471059
-27.471059
3.374696
3.374696
-14.615915
-14.615915
0.000000
-4.081525
-27.766353
-4.081525
-0.661282
0.000000
-18.623751
0.335616
0.000000
-26.799588
-14.440251
5.894984
-26.799588
-0.661282
0.335616
-14.440251
-8.035520
-0.253054
0.803813
2.437055
-22.324509
-22.324509
0.803813
2.437055
-20.663413
-8.035520
-20.663413
-0.253054
-3.261812
-5.707288
-14.284288
-8.671486
2.350522
-1.075735
0.994337
1.649517
0.000000
0.488315
0.994337
0.000000
5.463634
2.698959
-22.752738
-17.998230
-21.275701
-27.460994
-17.998230
-27.460994
-21.275701
0.488315
0.000000
1.649517
0.000000
5.463634
-26.420293
-14.284288
-20.619534
-8.671486
-5.707288
-3.261812
-26.420293
-20.619534
2.350522
-1.075735
-4.421567
-6.006327
-2.165233
-0.459133
-10.432096
-11.350842
-17.722494
-17.515675
1.600294
0.005950
0.656508
1.652942
0.609803
1.652942
3.299833
1.026264
0.321542
0.656508
0.005950
1.600294
1.284463
4.117515
4.117515
1.284463
-20.419496
-25.082205
-25.082205
-20.419496
-19.266970
-24.470226
-17.722494
-23.779662
-19.266970
-24.470226
-23.779662
0.321542
0.609803
1.026264
3.299833
-23.654295
-17.515675
-10.432096
-11.350842
-6.006327
-4.421567
-0.459133
-2.165233
-23.654295
-5.432064
-2.200336
-2.906919
-7.150281
-3.879292
-8.517609
-6.192379
-1.534873
-2.372472
-0.872574
0.810349
1.086359
-9.252805
-14.194210
-11.031195
-14.396074
-11.453819
-17.542416
-18.295974
-20.863996
-20.613445
-17.520046
3.120448
0.585770
1.879528
-0.182845
0.497092
1.027619
0.534001
0.567865
1.181259
2.496247
1.181259
0.821262
0.000000
0.434289
2.496247
1.027619
1.879528
2.100404
4.804523
3.829932
1.186497
0.000000
0.000000
0.283008
0.567865
0.534001
0.497092
0.585770
-0.182845
-0.872574
0.810349
3.120448
0.000000
2.634629
1.317021
5.793267
4.208201
2.634629
5.793267
3.829932
1.186497
0.000000
-22.643953
-20.554625
-18.475318
-20.001057
-25.169984
-24.833038
-27.686147
-22.643953
-27.686147
-24.833038
-20.001057
-18.475318
-17.033327
-18.295974
-21.829818
-24.082826
-27.139037
-20.863996
-14.194210
-17.542416
-23.631152
-26.534138
-17.033327
-21.829818
-27.139037
-24.082826
-26.534138
-23.631152
0.283008
0.000000
0.434289
0.000000
0.821262
2.100404
0.000000
4.804523
-26.553677
-20.613445
-23.763777
-14.396074
-17.520046
-11.031195
-9.252805
-7.150281
-8.517609
-11.453819
-6.192379
-5.432064
-3.879292
-2.906919
-2.200336
-1.534873
1.086359
-2.372472
-26.553677
-23.763777
-3.828955
-6.259312
-6.997112
-4.644530
-2.548218
-1.864113
-0.558955
-5.048256
-8.137186
-9.158851
-5.039452
-3.124326
-2.710117
-7.346338
-9.732423
-9.997845
-1.206248
-0.359254
-1.621212
-0.530924
-0.133118
0.946664
0.685868
1.969410
-12.003036
-12.479430
-16.212800
-15.942778
-12.765261
-12.910339
-15.936491
-15.969000
-19.198171
-19.084309
-19.533107
-17.417868
-20.171725
-22.498650
-22.233610
-19.068446
-22.139078
-22.162572
2.481875
1.266494
0.521540
1.388658
2.328954
0.164405
0.506079
0.794266
0.763706
1.165241
0.561665
0.415080
0.531623
1.742436
0.756764
1.065052
2.390000
3.527568
1.065052
0.756764
1.165241
1.742436
0.357699
1.400009
0.462009
0.260887
0.188867
0.531623
2.328954
3.527568
2.390000
1.388658
0.763706
0.794266
1.266494
2.481875
2.917937
1.688130
4.347918
4.799990
3.254713
0.553344
1.885806
0.617804
0.151089
0.415080
0.561665
0.506079
0.164405
0.521540
-0.133118
0.685868
-0.530924
-1.621212
-1.206248
1.969410
-0.359254
0.946664
0.650375
1.983716
3.414535
1.983716
0.650375
5.002820
5.002820
3.414535
3.254713
1.885806
4.799990
4.347918
2.917937
0.617804
1.688130
0.553344
-21.592630
-21.347692
-23.721571
-23.912560
-19.517478
-21.592630
-19.517478
-19.221910
-18.573764
-20.858580
-26.426621
-26.426621
-23.912560
-26.266127
-23.365485
-25.976288
-23.721571
-21.347692
-26.266127
-25.976288
-23.365485
-19.221910
-20.858580
-18.573764
-17.417868
-20.171725
-16.212800
-19.533107
-22.914617
-25.622810
-22.498650
-25.298493
-19.198171
-22.233610
-15.942778
-12.003036
-12.479430
-15.936491
-19.084309
-25.091363
-22.139078
-25.064229
-22.914617
-25.622810
-25.298493
-25.091363
-25.064229
0.151089
0.188867
0.260887
0.357699
0.462009
1.400009
-25.279060
-22.162572
-19.068446
-15.969000
-12.765261
-12.910339
-9.158851
-9.732423
-8.137186
-5.048256
-6.259312
-9.997845
-6.997112
-7.346338
-5.039452
-4.644530
-3.828955
-2.710117
-3.124326
-2.548218
-0.558955
-1.864113
-25.279060
-4.985468
-4.291835
-2.788799
-3.249763
-6.680996
-5.719847
-7.650984
-5.770003
-8.320659
-7.216840
-4.892395
-3.623933
-1.492192
-1.719725
-3.731234
-1.270629
-2.342724
-1.054339
0.253738
0.273225
-4.231245
-6.510746
-8.719597
-7.362181
-9.956274
-10.775386
-9.489490
-4.031144
-6.146118
-5.088197
-2.969737
-3.175658
-2.320806
-1.904113
-8.633313
-7.389129
-9.899673
-11.219923
-11.428204
-10.030242
-0.838353
-1.466312
-0.616245
0.220981
0.234660
-1.672653
-1.025108
-0.382663
-0.580104
-0.135851
0.245039
0.221370
1.519240
1.778985
1.266484
1.034610
2.293010
2.798879
-11.522262
-14.256482
-12.277186
-14.225169
-12.640036
-16.018063
-16.635631
-17.941086
-17.601457
-15.926486
-14.345521
-12.855622
-14.428909
-12.928680
-15.954302
-17.519715
-17.518284
-15.974567
-19.122069
-19.329434
-20.739789
-20.625053
-19.070461
-19.819118
-21.042855
-18.788126
-16.174808
-18.072974
-20.531765
-21.547957
-22.343971
-22.692940
-23.914899
-23.683939
-22.166805
-20.615991
-19.069110
-22.142340
-23.622180
-23.714918
-22.177106
3.311154
1.807050
2.516265
0.842038
1.382257
0.297250
0.701811
1.812523
1.051222
1.308617
2.055146
2.931868
0.120398
0.375801
0.613489
0.470446
0.564565
0.810527
0.940096
0.637437
0.666753
0.976770
1.435471
0.536413
0.508232
0.459028
0.400372
0.292680
0.369081
0.631623
1.409567
2.069551
0.903220
0.515436
0.713454
1.233961
2.928413
1.884983
2.677044
3.994962
4.255019
0.903220
1.409567
1.233961
0.713454
0.976770
0.515436
0.631623
1.435471
0.940096
1.308617
2.055146
2.069551
0.410243
0.000000
0.307097
0.927386
1.884983
1.553702
0.510404
0.000000
0.000000
0.221011
0.369081
0.000000
0.165375
0.459028
0.666753
2.931868
1.812523
2.516265
2.928413
4.255019
3.994962
2.677044
1.051222
1.382257
0.810527
0.637437
0.613489
0.701811
1.807050
0.842038
1.034610
2.293010
3.311154
2.285882
3.598906
3.109910
1.799372
1.113559
5.187428
4.610370
4.000538
5.660650
4.928399
3.355348
2.553051
0.589411
0.000000
1.243643
1.947154
0.638161
0.000000
0.000000
0.146297
0.292680
0.400372
0.508232
0.536413
0.564565
0.470446
0.375801
0.297250
0.120398
-0.135851
0.245039
0.221370
-0.382663
-0.616245
0.220981
1.266484
-0.580104
-1.025108
-1.466312
-1.672653
-2.320806
-1.904113
-0.838353
1.519240
2.798879
0.234660
-1.054339
0.253738
1.778985
0.000000
1.308894
0.654443
2.682960
1.995853
4.185768
3.434058
1.308894
2.682960
1.947154
0.638161
0.000000
5.869902
5.027207
4.185768
5.869902
4.928399
3.355348
2.553051
4.000538
3.109910
1.799372
1.243643
5.660650
4.610370
3.598906
5.187428
2.285882
0.589411
0.000000
1.113559
1.553702
0.510404
0.000000
-21.500934
-22.725461
-21.623147
-20.521049
-22.509423
-20.247530
-21.132951
-23.840064
-23.561142
-24.975727
-25.147834
-23.936952
-19.553324
-18.587069
-19.408542
-20.521049
-22.725461
-21.500934
-19.408542
-18.587069
-18.282905
-18.948731
-19.675084
-17.598334
-18.072974
-20.531765
-22.094589
-26.447386
-26.365266
-27.746070
-25.147834
-27.746070
-26.365266
-23.840064
-26.134103
-27.589483
-24.661251
-23.145028
-25.802082
-27.307786
-22.509423
-24.975727
-23.561142
-21.132951
-20.247530
-27.589483
-26.134103
-24.661251
-27.307786
-25.802082
-23.145028
-22.094589
-18.948731
-18.282905
-19.675084
-17.598334
-16.174808
-16.635631
-18.788126
-19.819118
-21.547957
-17.941086
-14.256482
-16.018063
-19.329434
-21.042855
-22.692940
-24.272611
-25.450921
-26.965696
-23.914899
-22.343971
-25.175906
-26.652312
-20.739789
-17.601457
-19.122069
-22.166805
-23.683939
-14.225169
-15.926486
-12.277186
-11.522262
-9.956274
-10.775386
-12.640036
-17.519715
-14.345521
-15.954302
-19.070461
-20.625053
-25.051751
-26.453924
-23.622180
-22.142340
-25.137807
-26.445242
-24.272611
-26.965696
-25.450921
-26.652312
-25.175906
-26.453924
-25.051751
-26.445242
-25.137807
0.146297
0.000000
0.165375
0.000000
0.221011
0.000000
0.307097
0.000000
0.410243
0.927386
0.000000
-26.815349
-23.714918
-25.448231
-20.615991
-22.177106
-17.518284
-19.069110
-14.428909
-15.974567
-12.855622
-11.219923
-11.428204
-12.928680
-9.489490
-8.719597
-7.650984
-8.320659
-9.899673
-7.362181
-6.510746
-5.719847
-4.231245
-3.731234
-4.985468
-6.680996
-8.633313
-10.030242
-7.216840
-5.770003
-6.146118
-7.389129
-5.088197
-4.892395
-4.031144
-4.291835
-3.623933
-3.249763
-2.788799
-2.969737
-2.342724
-3.175658
-1.719725
-1.492192
-1.270629
0.273225
-26.815349
-25.448231
