# vtk DataFile Version 3.1
Diffusion Equation
ASCII
DATASET POLYDATA
POINTS 864 float
0.000000 0.000000 0.000000
4.000000 0.000000 0.000000
0.000000 4.000000 0.000000
4.000000 4.000000 0.000000
1.000000 1.000000 0.000000
3.000000 1.000000 0.000000
1.000000 3.000000 0.000000
3.000000 3.000000 0.000000
2.000000 0.000000 0.000000
4.000000 2.000000 0.000000
2.000000 4.000000 0.000000
0.000000 2.000000 0.000000
1.000000 2.000000 0.000000
3.000000 0.000000 0.000000
2.000000 3.000000 0.000000
0.000000 1.000000 0.000000
1.000000 0.000000 0.000000
3.000000 4.000000 0.000000
4.000000 3.000000 0.000000
2.000000 1.000000 0.000000
1.000000 4.000000 0.000000
3.000000 2.000000 0.000000
4.000000 1.000000 0.000000
0.000000 3.000000 0.000000
0.500000 2.500000 0.000000
0.500000 1.500000 0.000000
3.500000 0.500000 0.000000
2.500000 0.500000 0.000000
2.500000 3.500000 0.000000
1.500000 3.500000 0.000000
0.500000 0.500000 0.000000
1.500000 0.500000 0.000000
3.500000 3.500000 0.000000
3.500000 2.500000 0.000000
0.500000 3.500000 0.000000
3.500000 1.500000 0.000000
0.500000 2.000000 0.000000
1.000000 2.500000 0.000000
0.500000 3.000000 0.000000
0.000000 2.500000 0.000000
1.000000 1.500000 0.000000
0.000000 1.500000 0.000000
0.500000 1.000000 0.000000
3.000000 0.500000 0.000000
3.500000 0.000000 0.000000
4.000000 0.500000 0.000000
3.500000 1.000000 0.000000
2.500000 0.000000 0.000000
2.500000 1.000000 0.000000
2.000000 0.500000 0.000000
2.000000 3.500000 0.000000
2.500000 3.000000 0.000000
3.000000 3.500000 0.000000
2.500000 4.000000 0.000000
1.500000 3.000000 0.000000
1.500000 4.000000 0.000000
1.000000 3.500000 0.000000
0.000000 0.500000 0.000000
0.500000 0.000000 0.000000
1.000000 0.500000 0.000000
1.500000 0.000000 0.000000
1.500000 1.000000 0.000000
3.500000 4.000000 0.000000
3.500000 3.000000 0.000000
4.000000 3.500000 0.000000
4.000000 2.500000 0.000000
3.000000 2.500000 0.000000
3.500000 2.000000 0.000000
0.500000 4.000000 0.000000
0.000000 3.500000 0.000000
3.000000 1.500000 0.000000
4.000000 1.500000 0.000000
0.750000 2.250000 0.000000
0.250000 2.250000 0.000000
0.250000 1.750000 0.000000
0.750000 1.750000 0.000000
0.750000 2.750000 0.000000
0.250000 2.750000 0.000000
0.750000 3.250000 0.000000
0.250000 3.250000 0.000000
0.750000 1.250000 0.000000
0.250000 1.250000 0.000000
0.250000 0.750000 0.000000
0.750000 0.750000 0.000000
3.250000 0.250000 0.000000
3.250000 0.750000 0.000000
2.750000 0.750000 0.000000
2.750000 0.250000 0.000000
3.750000 0.250000 0.000000
3.750000 0.750000 0.000000
3.750000 1.250000 0.000000
3.250000 1.250000 0.000000
2.250000 0.250000 0.000000
2.250000 0.750000 0.000000
1.750000 0.750000 0.000000
1.750000 0.250000 0.000000
2.250000 3.250000 0.000000
2.250000 3.750000 0.000000
1.750000 3.750000 0.000000
1.750000 3.250000 0.000000
2.750000 3.250000 0.000000
2.750000 3.750000 0.000000
3.250000 3.250000 0.000000
3.250000 3.750000 0.000000
1.250000 3.250000 0.000000
1.250000 3.750000 0.000000
0.750000 3.750000 0.000000
0.250000 0.250000 0.000000
0.750000 0.250000 0.000000
1.250000 0.250000 0.000000
1.250000 0.750000 0.000000
3.750000 3.750000 0.000000
3.750000 3.250000 0.000000
3.250000 2.750000 0.000000
3.750000 2.750000 0.000000
3.750000 2.250000 0.000000
3.250000 2.250000 0.000000
3.250000 1.750000 0.000000
3.750000 1.750000 0.000000
0.250000 3.750000 0.000000
0.500000 2.250000 0.000000
0.750000 2.000000 0.000000
1.000000 2.250000 0.000000
0.750000 2.500000 0.000000
0.250000 2.000000 0.000000
0.250000 2.500000 0.000000
0.000000 2.250000 0.000000
0.500000 1.750000 0.000000
0.000000 1.750000 0.000000
0.250000 1.500000 0.000000
0.750000 1.500000 0.000000
1.000000 1.750000 0.000000
1.000000 2.750000 0.000000
0.750000 3.000000 0.000000
0.500000 2.750000 0.000000
0.250000 3.000000 0.000000
0.000000 2.750000 0.000000
0.500000 3.250000 0.000000
1.000000 3.250000 0.000000
0.750000 3.500000 0.000000
0.250000 3.500000 0.000000
0.000000 3.250000 0.000000
1.000000 1.250000 0.000000
0.500000 1.250000 0.000000
0.750000 1.000000 0.000000
0.000000 1.250000 0.000000
0.250000 1.000000 0.000000
0.500000 0.750000 0.000000
0.000000 0.750000 0.000000
0.250000 0.500000 0.000000
0.750000 0.500000 0.000000
1.000000 0.750000 0.000000
3.250000 0.500000 0.000000
3.000000 0.250000 0.000000
3.250000 0.000000 0.000000
3.500000 0.250000 0.000000
3.000000 0.750000 0.000000
3.500000 0.750000 0.000000
3.250000 1.000000 0.000000
2.750000 0.500000 0.000000
2.750000 1.000000 0.000000
2.500000 0.750000 0.000000
2.500000 0.250000 0.000000
2.750000 0.000000 0.000000
3.750000 0.000000 0.000000
4.000000 0.250000 0.000000
3.750000 0.500000 0.000000
4.000000 0.750000 0.000000
3.750000 1.000000 0.000000
3.500000 1.250000 0.000000
4.000000 1.250000 0.000000
3.750000 1.500000 0.000000
3.250000 1.500000 0.000000
3.000000 1.250000 0.000000
2.250000 0.000000 0.000000
2.250000 0.500000 0.000000
2.000000 0.250000 0.000000
2.250000 1.000000 0.000000
2.000000 0.750000 0.000000
1.750000 0.500000 0.000000
1.750000 1.000000 0.000000
1.500000 0.750000 0.000000
1.500000 0.250000 0.000000
1.750000 0.000000 0.000000
2.250000 3.500000 0.000000
2.000000 3.250000 0.000000
2.250000 3.000000 0.000000
2.500000 3.250000 0.000000
2.000000 3.750000 0.000000
2.500000 3.750000 0.000000
2.250000 4.000000 0.000000
1.750000 3.500000 0.000000
1.750000 4.000000 0.000000
1.500000 3.750000 0.000000
1.500000 3.250000 0.000000
1.750000 3.000000 0.000000
2.750000 3.000000 0.000000
3.000000 3.250000 0.000000
2.750000 3.500000 0.000000
3.000000 3.750000 0.000000
2.750000 4.000000 0.000000
3.250000 3.500000 0.000000
3.250000 3.000000 0.000000
3.500000 3.250000 0.000000
3.500000 3.750000 0.000000
3.250000 4.000000 0.000000
1.250000 3.000000 0.000000
1.250000 3.500000 0.000000
1.250000 4.000000 0.000000
1.000000 3.750000 0.000000
0.750000 4.000000 0.000000
0.500000 3.750000 0.000000
0.000000 0.250000 0.000000
0.250000 0.000000 0.000000
0.500000 0.250000 0.000000
0.750000 0.000000 0.000000
1.000000 0.250000 0.000000
1.250000 0.500000 0.000000
1.250000 0.000000 0.000000
1.250000 1.000000 0.000000
3.750000 4.000000 0.000000
3.750000 3.500000 0.000000
4.000000 3.750000 0.000000
3.750000 3.000000 0.000000
4.000000 3.250000 0.000000
3.500000 2.750000 0.000000
3.000000 2.750000 0.000000
3.250000 2.500000 0.000000
3.750000 2.500000 0.000000
4.000000 2.750000 0.000000
4.000000 2.250000 0.000000
3.500000 2.250000 0.000000
3.750000 2.000000 0.000000
3.000000 2.250000 0.000000
3.250000 2.000000 0.000000
3.500000 1.750000 0.000000
3.000000 1.750000 0.000000
4.000000 1.750000 0.000000
0.250000 4.000000 0.000000
0.000000 3.750000 0.000000
0.625000 2.125000 0.000000
0.625000 2.375000 0.000000
0.375000 2.375000 0.000000
0.375000 2.125000 0.000000
0.875000 2.125000 0.000000
0.625000 1.875000 0.000000
0.875000 1.875000 0.000000
0.875000 2.375000 0.000000
0.875000 2.625000 0.000000
0.625000 2.625000 0.000000
0.125000 2.125000 0.000000
0.125000 1.875000 0.000000
0.375000 1.875000 0.000000
0.125000 2.375000 0.000000
0.375000 2.625000 0.000000
0.125000 2.625000 0.000000
0.375000 1.625000 0.000000
0.625000 1.625000 0.000000
0.125000 1.625000 0.000000
0.125000 1.375000 0.000000
0.375000 1.375000 0.000000
0.875000 1.625000 0.000000
0.625000 1.375000 0.000000
0.875000 1.375000 0.000000
0.875000 2.875000 0.000000
0.625000 2.875000 0.000000
0.875000 3.125000 0.000000
0.625000 3.125000 0.000000
0.375000 2.875000 0.000000
0.125000 2.875000 0.000000
0.375000 3.125000 0.000000
0.125000 3.125000 0.000000
0.625000 3.375000 0.000000
0.375000 3.375000 0.000000
0.875000 3.375000 0.000000
1.125000 3.125000 0.000000
1.125000 3.375000 0.000000
0.875000 3.625000 0.000000
0.625000 3.625000 0.000000
0.125000 3.375000 0.000000
0.375000 3.625000 0.000000
0.125000 3.625000 0.000000
0.875000 1.125000 0.000000
0.625000 1.125000 0.000000
0.375000 1.125000 0.000000
0.625000 0.875000 0.000000
0.875000 0.875000 0.000000
0.125000 1.125000 0.000000
0.125000 0.875000 0.000000
0.375000 0.875000 0.000000
0.375000 0.625000 0.000000
0.625000 0.625000 0.000000
0.125000 0.625000 0.000000
0.125000 0.375000 0.000000
0.375000 0.375000 0.000000
0.875000 0.625000 0.000000
0.625000 0.375000 0.000000
0.875000 0.375000 0.000000
1.125000 0.625000 0.000000
1.125000 0.875000 0.000000
3.125000 0.375000 0.000000
3.375000 0.375000 0.000000
3.375000 0.625000 0.000000
3.125000 0.625000 0.000000
3.125000 0.125000 0.000000
2.875000 0.375000 0.000000
2.875000 0.125000 0.000000
3.375000 0.125000 0.000000
3.625000 0.125000 0.000000
3.625000 0.375000 0.000000
3.125000 0.875000 0.000000
2.875000 0.875000 0.000000
2.875000 0.625000 0.000000
3.375000 0.875000 0.000000
3.625000 0.625000 0.000000
3.625000 0.875000 0.000000
3.375000 1.125000 0.000000
3.125000 1.125000 0.000000
2.625000 0.625000 0.000000
2.625000 0.375000 0.000000
2.625000 0.875000 0.000000
2.375000 0.875000 0.000000
2.375000 0.625000 0.000000
2.625000 0.125000 0.000000
2.375000 0.375000 0.000000
2.375000 0.125000 0.000000
3.875000 0.125000 0.000000
3.875000 0.375000 0.000000
3.875000 0.625000 0.000000
3.875000 0.875000 0.000000
3.875000 1.125000 0.000000
3.625000 1.125000 0.000000
3.625000 1.375000 0.000000
3.375000 1.375000 0.000000
3.875000 1.375000 0.000000
3.875000 1.625000 0.000000
3.625000 1.625000 0.000000
3.125000 1.375000 0.000000
3.375000 1.625000 0.000000
3.125000 1.625000 0.000000
2.125000 0.125000 0.000000
2.125000 0.375000 0.000000
2.125000 0.625000 0.000000
1.875000 0.375000 0.000000
1.875000 0.125000 0.000000
2.125000 0.875000 0.000000
1.875000 0.875000 0.000000
1.875000 0.625000 0.000000
1.625000 0.625000 0.000000
1.625000 0.375000 0.000000
1.625000 0.875000 0.000000
1.375000 0.875000 0.000000
1.375000 0.625000 0.000000
1.625000 0.125000 0.000000
1.375000 0.375000 0.000000
1.375000 0.125000 0.000000
2.125000 3.375000 0.000000
2.375000 3.375000 0.000000
2.375000 3.625000 0.000000
2.125000 3.625000 0.000000
2.125000 3.125000 0.000000
1.875000 3.375000 0.000000
1.875000 3.125000 0.000000
2.375000 3.125000 0.000000
2.625000 3.125000 0.000000
2.625000 3.375000 0.000000
2.125000 3.875000 0.000000
[...]
POINT_DATA 864
SCALARS Temperature float
LOOKUP_TABLE default
0.000000
0.000000
-22.590322
-22.590322
4.469937
4.469937
-9.941825
-9.941825
0.000000
-0.981245
-22.511919
-0.981245
2.436145
0.000000
-13.396067
1.804081
0.000000
-21.741112
-10.041997
6.244040
-21.741112
2.436145
1.804081
-10.041997
-4.196117
2.017245
1.460961
2.748387
-17.156091
-17.156091
1.460961
2.748387
-15.848955
-4.196117
-15.848955
2.017245
-0.162883
-1.844034
-9.838026
-4.848666
4.588346
1.216732
2.404130
2.149834
0.000000
1.191537
2.404130
0.000000
5.929903
2.942362
-17.511213
-12.867521
-16.297375
-22.264184
-12.867521
-22.264184
-16.297375
1.191537
0.000000
2.149834
0.000000
5.929903
-21.490677
-9.838026
-15.859272
-4.848666
-1.844034
-0.162883
-21.490677
-15.859272
4.588346
1.216732
-0.934105
-2.528767
0.535382
2.226317
-6.230760
-7.209545
-12.979725
-12.893294
3.388482
1.873047
1.718222
2.576355
0.901506
2.576355
3.862176
1.228887
0.662739
1.718222
1.873047
3.388482
1.423367
4.462888
4.462888
1.423367
-15.209380
-19.847349
-19.847349
-15.209380
-14.239068
-19.350484
-12.979725
-18.817917
-14.239068
-19.350484
-18.817917
0.662739
0.901506
1.228887
3.862176
-18.790827
-12.893294
-6.230760
-7.209545
-2.528767
-0.934105
2.226317
0.535382
-18.790827
-1.949921
0.897550
0.583053
-3.295360
-0.779394
-4.690378
-2.716552
1.158700
0.330817
1.414028
3.059608
3.767995
-5.022704
-9.677353
-6.866272
-9.986291
-7.320482
-12.877860
-13.425206
-15.980461
-15.839765
-12.911072
4.868956
2.422406
3.197262
1.694336
1.951784
2.042903
1.609936
1.260033
1.774844
3.258939
1.774844
1.070231
0.000000
0.757311
3.258939
2.042903
3.197262
2.496113
5.454819
4.252077
1.350156
0.000000
0.000000
0.630078
1.260033
1.609936
1.951784
2.422406
1.694336
1.414028
3.059608
4.868956
0.000000
2.894861
1.447565
6.169831
4.529319
2.894861
6.169831
4.252077
1.350156
0.000000
-17.420934
-15.322774
-13.270972
-14.857633
-19.919247
-19.643950
-22.446636
-17.420934
-22.446636
-19.643950
-14.857633
-13.270972
-12.044490
-13.425206
-16.747667
-19.044082
-22.006215
-15.980461
-9.677353
-12.877860
-18.729919
-21.547143
-12.044490
-16.747667
-22.006215
-19.044082
-21.547143
-18.729919
0.630078
0.000000
0.757311
0.000000
1.070231
2.496113
0.000000
5.454819
-21.660513
-15.839765
-18.913068
-9.986291
-12.911072
-6.866272
-5.022704
-3.295360
-4.690378
-7.320482
-2.716552
-1.949921
-0.779394
0.583053
0.897550
1.158700
3.767995
0.330817
-21.660513
-18.913068
-0.534399
-2.590085
-3.337291
-1.351953
0.747950
1.032453
2.334197
-1.370937
-4.096088
-5.140371
-1.748114
-0.220682
0.190762
-3.692226
-5.735710
-6.013123
1.283827
2.117685
0.876812
1.551807
1.934010
3.412256
2.724184
3.977091
-7.604016
-8.143574
-11.508489
-11.345476
-8.470820
-8.635807
-11.396497
-11.455027
-14.417612
-14.361256
-14.660575
-12.511513
-15.176839
-17.528784
-17.339072
-14.372864
-17.296546
-17.346219
3.986078
2.856518
2.165013
2.555426
3.356577
1.832699
1.772284
2.030468
1.620964
1.963399
1.445627
0.936426
1.035457
2.439090
1.223657
1.474305
2.944800
4.278518
1.474305
1.223657
1.963399
2.439090
0.493036
1.737135
0.575000
0.414740
0.355077
1.035457
3.356577
4.278518
2.944800
2.555426
1.620964
2.030468
2.856518
3.986078
3.340722
1.956520
4.873979
5.203275
3.589760
0.644955
2.104469
0.693489
0.323302
0.936426
1.445627
1.772284
1.832699
2.165013
1.934010
2.724184
1.551807
0.876812
1.283827
3.977091
2.117685
3.412256
0.717791
2.177160
3.707397
2.177160
0.717791
5.351357
5.351357
3.707397
3.589760
2.104469
5.203275
4.873979
3.340722
0.693489
1.956520
0.644955
-16.361314
-16.156741
-18.512969
-18.670275
-14.294387
-16.361314
-14.294387
-14.045304
-13.496672
-15.748187
-21.176964
-21.176964
-18.670275
-21.046303
-18.220875
-20.811966
-18.512969
-16.156741
-21.046303
-20.811966
-18.220875
-14.045304
-15.748187
-13.496672
-12.511513
-15.176839
-11.508489
-14.660575
-17.855287
-20.530787
-17.528784
-20.282574
-14.417612
-17.339072
-11.345476
-7.604016
-8.143574
-11.396497
-14.361256
-20.142096
-17.296546
-20.162999
-17.855287
-20.530787
-20.282574
-20.142096
-20.162999
0.323302
0.355077
0.414740
0.493036
0.575000
1.737135
-20.402683
-17.346219
-14.372864
-11.455027
-8.470820
-8.635807
-5.140371
-5.735710
-4.096088
-1.370937
-2.590085
-6.013123
-3.337291
-3.692226
-1.748114
-1.351953
-0.534399
0.190762
-0.220682
0.747950
2.334197
1.032453
-20.402683
-1.501079
-0.998798
0.309113
0.045241
-3.017251
-2.046516
-3.804326
-2.290936
-4.488721
-3.561066
-1.601067
-0.524934
1.604893
1.576195
-0.242460
1.623500
0.555630
1.634598
2.935998
3.165432
-0.553178
-2.650443
-4.689432
-3.317083
-5.737122
-6.593986
-5.483412
-0.931426
-2.670369
-1.797516
-0.067610
-0.272074
0.381395
0.792979
-4.809948
-3.736318
-5.910989
-7.069338
-7.293495
-6.047650
1.645112
1.028263
1.662963
2.480360
2.704710
0.826045
1.265534
1.693848
1.504297
1.738536
2.099177
2.275079
3.760000
4.242383
3.287950
2.848443
4.055682
4.799902
-7.095379
-9.681544
-7.912612
-9.749760
-8.328376
-11.376364
-11.845317
-13.142054
-12.903755
-11.363092
-9.921577
-8.574328
-10.028456
-8.657238
-11.431416
-12.880831
-12.906676
-11.464423
-14.374992
-14.508142
-15.895067
-15.835189
-14.365379
-14.888515
-16.115316
-13.836666
-11.304441
-13.071430
-15.476419
-16.517778
-17.415075
-17.679873
-18.916835
-18.755768
-17.302159
-15.853097
-14.377606
-17.316887
-18.743605
-18.861739
-17.364746
4.774631
3.357551
3.752835
2.462504
2.753746
1.956135
2.138281
2.921739
2.258595
2.284814
2.907997
3.841267
1.791456
1.840652
1.868567
1.740028
1.636840
1.853453
1.772307
1.511475
1.344558
1.605904
2.188648
1.423449
1.208617
0.973819
0.923774
0.638241
0.702747
1.119493
1.959684
2.698355
1.343710
0.824397
0.984851
1.607989
3.586306
2.332105
3.161098
4.617560
5.067121
1.343710
1.959684
1.607989
0.984851
1.605904
0.824397
1.119493
2.188648
1.772307
2.284814
2.907997
2.698355
0.534604
0.000000
0.452364
1.152881
2.332105
1.854754
0.612241
0.000000
0.000000
0.381831
0.702747
0.000000
0.335331
0.973819
1.344558
3.841267
2.921739
3.752835
3.586306
5.067121
4.617560
3.161098
2.258595
2.753746
1.853453
1.511475
1.868567
2.138281
3.357551
2.462504
2.848443
4.055682
4.774631
2.635541
4.082384
3.482849
2.039955
1.295184
5.729762
5.064945
4.377113
6.073124
5.296949
3.663819
2.834454
0.672175
0.000000
1.392915
2.150025
0.708683
0.000000
0.000000
0.319223
0.638241
0.923774
1.208617
1.423449
1.636840
1.740028
1.840652
1.956135
1.791456
1.738536
2.099177
2.275079
1.693848
1.662963
2.480360
3.287950
1.504297
1.265534
1.028263
0.826045
0.381395
0.792979
1.645112
3.760000
4.799902
2.704710
1.634598
2.935998
4.242383
0.000000
1.441511
0.720807
2.930520
2.186119
4.512839
3.721705
1.441511
2.930520
2.150025
0.708683
0.000000
6.225682
5.369121
4.512839
6.225682
5.296949
3.663819
2.834454
4.377113
3.482849
2.039955
1.392915
6.073124
5.064945
4.082384
5.729762
2.635541
0.672175
0.000000
1.295184
1.854754
0.612241
0.000000
-16.285523
-17.489358
-16.387578
-15.295391
-17.310119
-15.065705
-15.978111
-18.611308
-18.381912
-19.761073
-19.901880
-18.691174
-14.325330
-13.365953
-14.203444
-15.295391
-17.489358
-16.285523
-14.203444
-13.365953
-13.109290
-13.815237
-14.583858
-12.528384
-13.071430
-15.476419
-16.966662
-21.194693
-21.127737
-22.496184
-19.901880
-22.496184
-21.127737
-18.611308
-20.940037
-22.368928
-19.505267
-18.042042
-20.673319
-22.141671
-17.310119
-19.761073
-18.381912
-15.978111
-15.065705
-22.368928
-20.940037
-19.505267
-22.141671
-20.673319
-18.042042
-16.966662
-13.815237
-13.109290
-14.583858
-12.528384
-11.304441
-11.845317
-13.836666
-14.888515
-16.517778
-13.142054
-9.681544
-11.376364
-14.508142
-16.115316
-17.679873
-19.193631
-20.398118
-21.870334
-18.916835
-17.415075
-20.195934
-21.631483
-15.895067
-12.903755
-14.374992
-17.302159
-18.755768
-9.749760
-11.363092
-7.912612
-7.095379
-5.737122
-6.593986
-8.328376
-12.880831
-9.921577
-11.431416
-14.365379
-15.835189
-20.129942
-21.498655
-18.743605
-17.316887
-20.252786
-21.537463
-19.193631
-21.870334
-20.398118
-21.631483
-20.195934
-21.498655
-20.129942
-21.537463
-20.252786
0.319223
0.000000
0.335331
0.000000
0.381831
0.000000
0.452364
0.000000
0.534604
1.152881
0.000000
-21.932224
-18.861739
-20.575723
-15.853097
-17.364746
-12.906676
-14.377606
-10.028456
-11.464423
-8.574328
-7.069338
-7.293495
-8.657238
-5.483412
-4.689432
-3.804326
-4.488721
-5.910989
-3.317083
-2.650443
-2.046516
-0.553178
-0.242460
-1.501079
-3.017251
-4.809948
-6.047650
-3.561066
-2.290936
-2.670369
-3.736318
-1.797516
-1.601067
-0.931426
-0.998798
-0.524934
0.045241
0.309113
-0.067610
0.555630
-0.272074
1.576195
1.604893
1.623500
3.165432
-21.932224
-20.575723
