# vtk DataFile Version 3.1
Diffusion Equation
ASCII
DATASET POLYDATA
POINTS 864 float
0.000000 0.000000 0.000000
4.000000 0.000000 0.000000
0.000000 4.000000 0.000000
4.000000 4.000000 0.000000
1.000000 1.000000 0.000000
3.000000 1.000000 0.000000
1.000000 3.000000 0.000000
3.000000 3.000000 0.000000
2.000000 0.000000 0.000000
4.000000 2.000000 0.000000
2.000000 4.000000 0.000000
0.000000 2.000000 0.000000
1.000000 2.000000 0.000000
3.000000 0.000000 0.000000
2.000000 3.000000 0.000000
0.000000 1.000000 0.000000
1.000000 0.000000 0.000000
3.000000 4.000000 0.000000
4.000000 3.000000 0.000000
2.000000 1.000000 0.000000
1.000000 4.000000 0.000000
3.000000 2.000000 0.000000
4.000000 1.000000 0.000000
0.000000 3.000000 0.000000
0.500000 2.500000 0.000000
0.500000 1.500000 0.000000
3.500000 0.500000 0.000000
2.500000 0.500000 0.000000
2.500000 3.500000 0.000000
1.500000 3.500000 0.000000
0.500000 0.500000 0.000000
1.500000 0.500000 0.000000
3.500000 3.500000 0.000000
3.500000 2.500000 0.000000
0.500000 3.500000 0.000000
3.500000 1.500000 0.000000
0.500000 2.000000 0.000000
1.000000 2.500000 0.000000
0.500000 3.000000 0.000000
0.000000 2.500000 0.000000
1.000000 1.500000 0.000000
0.000000 1.500000 0.000000
0.500000 1.000000 0.000000
3.000000 0.500000 0.000000
3.500000 0.000000 0.000000
4.000000 0.500000 0.000000
3.500000 1.000000 0.000000
2.500000 0.000000 0.000000
2.500000 1.000000 0.000000
2.000000 0.500000 0.000000
2.000000 3.500000 0.000000
2.500000 3.000000 0.000000
3.000000 3.500000 0.000000
2.500000 4.000000 0.000000
1.500000 3.000000 0.000000
1.500000 4.000000 0.000000
1.000000 3.500000 0.000000
0.000000 0.500000 0.000000
0.500000 0.000000 0.000000
1.000000 0.500000 0.000000
1.500000 0.000000 0.000000
1.500000 1.000000 0.000000
3.500000 4.000000 0.000000
3.500000 3.000000 0.000000
4.000000 3.500000 0.000000
4.000000 2.500000 0.000000
3.000000 2.500000 0.000000
3.500000 2.000000 0.000000
0.500000 4.000000 0.000000
0.000000 3.500000 0.000000
3.000000 1.500000 0.000000
4.000000 1.500000 0.000000
0.750000 2.250000 0.000000
0.250000 2.250000 0.000000
0.250000 1.750000 0.000000
0.750000 1.750000 0.000000
0.750000 2.750000 0.000000
0.250000 2.750000 0.000000
0.750000 3.250000 0.000000
0.250000 3.250000 0.000000
0.750000 1.250000 0.000000
0.250000 1.250000 0.000000
0.250000 0.750000 0.000000
0.750000 0.750000 0.000000
3.250000 0.250000 0.000000
3.250000 0.750000 0.000000
2.750000 0.750000 0.000000
2.750000 0.250000 0.000000
3.750000 0.250000 0.000000
3.750000 0.750000 0.000000
3.750000 1.250000 0.000000
3.250000 1.250000 0.000000
2.250000 0.250000 0.000000
2.250000 0.750000 0.000000
1.750000 0.750000 0.000000
1.750000 0.250000 0.000000
2.250000 3.250000 0.000000
2.250000 3.750000 0.000000
1.750000 3.750000 0.000000
1.750000 3.250000 0.000000
2.750000 3.250000 0.000000
2.750000 3.750000 0.000000
3.250000 3.250000 0.000000
3.250000 3.750000 0.000000
1.250000 3.250000 0.000000
1.250000 3.750000 0.000000
0.750000 3.750000 0.000000
0.250000 0.250000 0.000000
0.750000 0.250000 0.000000
1.250000 0.250000 0.000000
1.250000 0.750000 0.000000
3.750000 3.750000 0.000000
3.750000 3.250000 0.000000
3.250000 2.750000 0.000000
3.750000 2.750000 0.000000
3.750000 2.250000 0.000000
3.250000 2.250000 0.000000
3.250000 1.750000 0.000000
3.750000 1.750000 0.000000
0.250000 3.750000 0.000000
0.500000 2.250000 0.000000
0.750000 2.000000 0.000000
1.000000 2.250000 0.000000
0.750000 2.500000 0.000000
0.250000 2.000000 0.000000
0.250000 2.500000 0.000000
0.000000 2.250000 0.000000
0.500000 1.750000 0.000000
0.000000 1.750000 0.000000
0.250000 1.500000 0.000000
0.750000 1.500000 0.000000
1.000000 1.750000 0.000000
1.000000 2.750000 0.000000
0.750000 3.000000 0.000000
0.500000 2.750000 0.000000
0.250000 3.000000 0.000000
0.000000 2.750000 0.000000
0.500000 3.250000 0.000000
1.000000 3.250000 0.000000
0.750000 3.500000 0.000000
0.250000 3.500000 0.000000
0.000000 3.250000 0.000000
1.000000 1.250000 0.000000
0.500000 1.250000 0.000000
0.750000 1.000000 0.000000
0.000000 1.250000 0.000000
0.250000 1.000000 0.000000
0.500000 0.750000 0.000000
0.000000 0.750000 0.000000
0.250000 0.500000 0.000000
0.750000 0.500000 0.000000
1.000000 0.750000 0.000000
3.250000 0.500000 0.000000
3.000000 0.250000 0.000000
3.250000 0.000000 0.000000
3.500000 0.250000 0.000000
3.000000 0.750000 0.000000
3.500000 0.750000 0.000000
3.250000 1.000000 0.000000
2.750000 0.500000 0.000000
2.750000 1.000000 0.000000
2.500000 0.750000 0.000000
2.500000 0.250000 0.000000
2.750000 0.000000 0.000000
3.750000 0.000000 0.000000
4.000000 0.250000 0.000000
3.750000 0.500000 0.000000
4.000000 0.750000 0.000000
3.750000 1.000000 0.000000
3.500000 1.250000 0.000000
4.000000 1.250000 0.000000
3.750000 1.500000 0.000000
3.250000 1.500000 0.000000
3.000000 1.250000 0.000000
2.250000 0.000000 0.000000
2.250000 0.500000 0.000000
2.000000 0.250000 0.000000
2.250000 1.000000 0.000000
2.000000 0.750000 0.000000
1.750000 0.500000 0.000000
1.750000 1.000000 0.000000
1.500000 0.750000 0.000000
1.500000 0.250000 0.000000
1.750000 0.000000 0.000000
2.250000 3.500000 0.000000
2.000000 3.250000 0.000000
2.250000 3.000000 0.000000
2.500000 3.250000 0.000000
2.000000 3.750000 0.000000
2.500000 3.750000 0.000000
2.250000 4.000000 0.000000
1.750000 3.500000 0.000000
1.750000 4.000000 0.000000
1.500000 3.750000 0.000000
1.500000 3.250000 0.000000
1.750000 3.000000 0.000000
2.750000 3.000000 0.000000
3.000000 3.250000 0.000000
2.750000 3.500000 0.000000
3.000000 3.750000 0.000000
2.750000 4.000000 0.000000
3.250000 3.500000 0.000000
3.250000 3.000000 0.000000
3.500000 3.250000 0.000000
3.500000 3.750000 0.000000
3.250000 4.000000 0.000000
1.250000 3.000000 0.000000
1.250000 3.500000 0.000000
1.250000 4.000000 0.000000
1.000000 3.750000 0.000000
0.750000 4.000000 0.000000
0.500000 3.750000 0.000000
0.000000 0.250000 0.000000
0.250000 0.000000 0.000000
0.500000 0.250000 0.000000
0.750000 0.000000 0.000000
1.000000 0.250000 0.000000
1.250000 0.500000 0.000000
1.250000 0.000000 0.000000
1.250000 1.000000 0.000000
3.750000 4.000000 0.000000
3.750000 3.500000 0.000000
4.000000 3.750000 0.000000
3.750000 3.000000 0.000000
4.000000 3.250000 0.000000
3.500000 2.750000 0.000000
3.000000 2.750000 0.000000
3.250000 2.500000 0.000000
3.750000 2.500000 0.000000
4.000000 2.750000 0.000000
4.000000 2.250000 0.000000
3.500000 2.250000 0.000000
3.750000 2.000000 0.000000
3.000000 2.250000 0.000000
3.250000 2.000000 0.000000
3.500000 1.750000 0.000000
3.000000 1.750000 0.000000
4.000000 1.750000 0.000000
0.250000 4.000000 0.000000
0.000000 3.750000 0.000000
0.625000 2.125000 0.000000
0.625000 2.375000 0.000000
0.375000 2.375000 0.000000
0.375000 2.125000 0.000000
0.875000 2.125000 0.000000
0.625000 1.875000 0.000000
0.875000 1.875000 0.000000
0.875000 2.375000 0.000000
0.875000 2.625000 0.000000
0.625000 2.625000 0.000000
0.125000 2.125000 0.000000
0.125000 1.875000 0.000000
0.375000 1.875000 0.000000
0.125000 2.375000 0.000000
0.375000 2.625000 0.000000
0.125000 2.625000 0.000000
0.375000 1.625000 0.000000
0.625000 1.625000 0.000000
0.125000 1.625000 0.000000
0.125000 1.375000 0.000000
0.375000 1.375000 0.000000
0.875000 1.625000 0.000000
0.625000 1.375000 0.000000
0.875000 1.375000 0.000000
0.875000 2.875000 0.000000
0.625000 2.875000 0.000000
0.875000 3.125000 0.000000
0.625000 3.125000 0.000000
0.375000 2.875000 0.000000
0.125000 2.875000 0.000000
0.375000 3.125000 0.000000
0.125000 3.125000 0.000000
0.625000 3.375000 0.000000
0.375000 3.375000 0.000000
0.875000 3.375000 0.000000
1.125000 3.125000 0.000000
1.125000 3.375000 0.000000
0.875000 3.625000 0.000000
0.625000 3.625000 0.000000
0.125000 3.375000 0.000000
0.375000 3.625000 0.000000
0.125000 3.625000 0.000000
0.875000 1.125000 0.000000
0.625000 1.125000 0.000000
0.375000 1.125000 0.000000
0.625000 0.875000 0.000000
0.875000 0.875000 0.000000
0.125000 1.125000 0.000000
0.125000 0.875000 0.000000
0.375000 0.875000 0.000000
0.375000 0.625000 0.000000
0.625000 0.625000 0.000000
0.125000 0.625000 0.000000
0.125000 0.375000 0.000000
0.375000 0.375000 0.000000
0.875000 0.625000 0.000000
0.625000 0.375000 0.000000
0.875000 0.375000 0.000000
1.125000 0.625000 0.000000
1.125000 0.875000 0.000000
3.125000 0.375000 0.000000
3.375000 0.375000 0.000000
3.375000 0.625000 0.000000
3.125000 0.625000 0.000000
3.125000 0.125000 0.000000
2.875000 0.375000 0.000000
2.875000 0.125000 0.000000
3.375000 0.125000 0.000000
3.625000 0.125000 0.000000
3.625000 0.375000 0.000000
3.125000 0.875000 0.000000
2.875000 0.875000 0.000000
2.875000 0.625000 0.000000
3.375000 0.875000 0.000000
3.625000 0.625000 0.000000
3.625000 0.875000 0.000000
3.375000 1.125000 0.000000
3.125000 1.125000 0.000000
2.625000 0.625000 0.000000
2.625000 0.375000 0.000000
2.625000 0.875000 0.000000
2.375000 0.875000 0.000000
2.375000 0.625000 0.000000
2.625000 0.125000 0.000000
2.375000 0.375000 0.000000
2.375000 0.125000 0.000000
3.875000 0.125000 0.000000
3.875000 0.375000 0.000000
3.875000 0.625000 0.000000
3.875000 0.875000 0.000000
3.875000 1.125000 0.000000
3.625000 1.125000 0.000000
3.625000 1.375000 0.000000
3.375000 1.375000 0.000000
3.875000 1.375000 0.000000
3.875000 1.625000 0.000000
3.625000 1.625000 0.000000
3.125000 1.375000 0.000000
3.375000 1.625000 0.000000
3.125000 1.625000 0.000000
2.125000 0.125000 0.000000
2.125000 0.375000 0.000000
2.125000 0.625000 0.000000
1.875000 0.375000 0.000000
1.875000 0.125000 0.000000
2.125000 0.875000 0.000000
1.875000 0.875000 0.000000
1.875000 0.625000 0.000000
1.625000 0.625000 0.000000
1.625000 0.375000 0.000000
1.625000 0.875000 0.000000
1.375000 0.875000 0.000000
1.375000 0.625000 0.000000
1.625000 0.125000 0.000000
1.375000 0.375000 0.000000
1.375000 0.125000 0.000000
2.125000 3.375000 0.000000
2.375000 3.375000 0.000000
2.375000 3.625000 0.000000
2.125000 3.625000 0.000000
2.125000 3.125000 0.000000
1.875000 3.375000 0.000000
1.875000 3.125000 0.000000
2.375000 3.125000 0.000000
2.625000 3.125000 0.000000
2.625000 3.375000 0.000000
2.125000 3.875000 0.000000
[...]
POINT_DATA 864
SCALARS Temperature float
LOOKUP_TABLE default
0.000000
0.000000
-19.811614
-19.811614
5.091102
5.091102
-7.281039
-7.281039
0.000000
0.780112
-19.518179
0.780112
4.195952
0.000000
-10.417671
2.637102
0.000000
-18.860125
-7.539466
6.441633
-18.860125
4.195952
2.637102
-7.539466
-2.012968
3.306044
1.833536
2.924712
-14.211786
-14.211786
1.833536
2.924712
-13.108074
-2.012968
-13.108074
3.306044
1.597741
0.352821
-7.307916
-2.675052
5.858724
2.518103
3.203858
2.433408
0.000000
1.590255
3.203858
0.000000
6.194013
3.080142
-14.524878
-9.944832
-13.462312
-19.303603
-9.944832
-19.303603
-13.462312
1.590255
0.000000
2.433408
0.000000
6.194013
-18.683837
-7.307916
-13.149558
-2.675052
0.352821
1.597741
-18.683837
-13.149558
5.858724
2.518103
1.048142
-0.552236
2.069057
3.751412
-3.840666
-4.853932
-10.279753
-10.262482
4.403215
2.932558
2.320329
3.099974
1.066847
3.099974
4.180850
1.343680
0.856164
2.320329
2.932558
4.403215
1.502004
4.658427
4.658427
1.502004
-12.241085
-16.864867
-16.864867
-12.241085
-11.375431
-16.434218
-10.279753
-15.992525
-11.375431
-16.434218
-15.992525
0.856164
1.066847
1.343680
4.180850
-16.021976
-10.262482
-3.840666
-4.853932
-0.552236
1.048142
3.751412
2.069057
-16.021976
0.029257
2.657607
2.566749
-1.103292
0.981756
-2.514227
-0.741023
2.688392
1.866005
2.712073
4.336474
5.290929
-2.616106
-7.106720
-4.497085
-7.477136
-4.969443
-10.222812
-10.651761
-13.199872
-13.122334
-10.287967
5.861167
3.464633
3.944739
2.759567
2.776990
2.618662
2.220112
1.652479
2.111348
3.691333
2.111348
1.211323
0.000000
0.940423
3.691333
2.618662
3.944739
2.720320
5.823380
4.491182
1.442839
0.000000
0.000000
0.826835
1.652479
2.220112
2.776990
3.464633
2.759567
2.712073
4.336474
5.861167
0.000000
3.042190
1.521458
6.383033
4.711095
3.042190
6.383033
4.491182
1.442839
0.000000
-14.445239
-12.341988
-10.305985
-11.927655
-16.927628
-16.687796
-19.461484
-14.445239
-19.461484
-16.687796
-11.927655
-10.305985
-9.203235
-10.651761
-13.852944
-16.174402
-19.082452
-13.199872
-7.106720
-10.222812
-15.939338
-18.707285
-9.203235
-13.852944
-19.082452
-16.174402
-18.707285
-15.939338
0.826835
0.000000
0.940423
0.000000
1.211323
2.720320
0.000000
5.823380
-18.874652
-13.122334
-16.151558
-7.477136
-10.287967
-4.497085
-2.616106
-1.103292
-2.514227
-4.969443
-0.741023
0.029257
0.981756
2.566749
2.657607
2.688392
5.290929
1.866005
-18.874652
-16.151558
1.337782
-0.504100
-1.256719
0.519067
2.621073
2.677774
3.977592
0.719704
-1.797596
-2.854865
0.122178
1.428625
1.838511
-1.614942
-3.462709
-3.747014
2.697661
3.524074
2.295149
2.733895
3.107248
4.812211
3.881075
5.116598
-5.100776
-5.676579
-8.830460
-8.728863
-6.027608
-6.204033
-8.812800
-8.886282
-11.696077
-11.672771
-11.886204
-9.717595
-12.332202
-14.698656
-14.552258
-11.700174
-14.539643
-14.604376
4.839481
3.758635
3.097462
3.217172
3.939345
2.779231
2.490460
2.731619
2.107056
2.415953
1.946871
1.231998
1.321093
2.834038
1.488331
1.706270
3.259237
4.704224
1.706270
1.488331
2.415953
2.834038
0.569738
1.928170
0.639021
0.501949
0.449296
1.321093
3.939345
4.704224
3.259237
3.217172
2.107056
2.731619
3.758635
4.839481
3.580236
2.108550
5.172034
5.431651
3.779484
0.696845
2.228281
0.736342
0.420927
1.231998
1.946871
2.490460
2.779231
3.097462
3.107248
3.881075
2.733895
2.295149
2.697661
5.116598
3.524074
4.812211
0.755952
2.286663
3.873183
2.286663
0.755952
5.548665
5.548665
3.873183
3.779484
2.228281
5.431651
5.172034
3.580236
0.736342
2.108550
0.696845
-13.380841
-13.199469
-15.545576
-15.683511
-11.318630
-13.380841
-11.318630
-11.096256
-10.604774
-12.837205
-18.185971
-18.185971
-15.683511
-18.072476
-15.290281
-17.870072
-15.545576
-13.199469
-18.072476
-17.870072
-15.290281
-11.096256
-12.837205
-10.604774
-9.717595
-12.332202
-8.830460
-11.886204
-14.973723
-17.630488
-14.698656
-17.426059
-11.696077
-14.552258
-8.728863
-5.100776
-5.676579
-8.812800
-11.672771
-17.323931
-14.539643
-17.372477
-14.973723
-17.630488
-17.426059
-17.323931
-17.372477
0.420927
0.449296
0.501949
0.569738
0.639021
1.928170
-17.626464
-14.604376
-11.700174
-8.886282
-6.027608
-6.204033
-2.854865
-3.462709
-1.797596
0.719704
-0.504100
-3.747014
-1.256719
-1.614942
0.122178
0.519067
1.337782
1.838511
1.428625
2.621073
3.977592
2.677774
-17.626464
0.479404
0.872505
2.069176
1.917695
-0.934413
0.041838
-1.616999
-0.313527
-2.309857
-1.482816
0.269233
1.235720
3.364506
3.449185
1.740553
3.267450
2.201960
3.161670
4.459290
4.808298
1.537899
-0.455277
-2.397210
-1.016289
-3.336801
-4.215332
-3.205024
0.829619
-0.694876
0.072403
1.580845
1.377200
1.915972
2.324666
-2.636014
-1.659776
-3.642596
-4.708382
-4.941662
-3.782760
3.055203
2.444650
2.956820
3.762971
4.107196
2.244769
2.565874
2.872412
2.687337
2.802186
3.151339
3.440708
5.032048
5.641098
4.435283
3.877735
5.055937
5.935634
-4.576161
-7.077592
-5.429130
-7.202911
-5.875268
-8.734261
-9.117953
-10.409780
-10.229661
-8.765947
-7.404282
-6.138663
-7.524658
-6.227234
-8.857544
-10.240530
-10.282053
-8.897875
-11.672695
-11.763202
-13.136784
-13.108446
-11.687222
-12.080791
-13.309434
-11.016909
-8.531138
-10.222896
-12.597057
-13.652919
-14.608501
-14.824905
-16.070550
-15.949687
-14.532533
-13.141865
-11.707257
-14.569806
-15.966057
-16.098805
-14.625198
5.604918
4.237240
4.454242
3.381901
3.531739
2.897333
2.953151
3.550823
2.943389
2.838394
3.391569
4.356924
2.739561
2.671628
2.580433
2.460124
2.244942
2.444901
2.244188
2.007090
1.728856
1.962584
2.615678
1.926440
1.605726
1.265673
1.220515
0.834142
0.891899
1.396072
2.271521
3.054796
1.593404
0.999531
1.138670
1.819966
3.959216
2.585491
3.435385
4.970411
5.527538
1.593404
2.271521
1.819966
1.138670
1.962584
0.999531
1.396072
2.615678
2.244188
2.838394
3.391569
3.054796
0.605078
0.000000
0.534701
1.280653
2.585491
2.025319
0.669933
0.000000
0.000000
0.472992
0.891899
0.000000
0.431676
1.265673
1.728856
4.356924
3.550823
4.454242
3.959216
5.527538
4.970411
3.435385
2.943389
3.531739
2.444901
2.007090
2.580433
2.953151
4.237240
3.381901
3.877735
5.055937
5.604918
2.833616
4.356299
3.694076
2.176207
1.398062
6.037045
5.322430
4.590360
6.306706
5.505614
3.838463
2.993797
0.719045
0.000000
1.477435
2.264878
0.748607
0.000000
0.000000
0.417253
0.834142
1.220515
1.605726
1.926440
2.244942
2.460124
2.671628
2.897333
2.739561
2.802186
3.151339
3.440708
2.872412
2.956820
3.762971
4.435283
2.687337
2.565874
2.444650
2.244769
1.915972
2.324666
3.055203
5.032048
5.935634
4.107196
3.161670
4.459290
5.641098
0.000000
1.516580
0.758371
3.070659
2.293820
4.697993
3.884533
1.516580
3.070659
2.264878
0.748607
0.000000
6.427092
5.562672
4.697993
6.427092
5.505614
3.838463
2.993797
4.590360
3.694076
2.176207
1.477435
6.306706
5.322430
4.356299
6.037045
2.833616
0.719045
0.000000
1.398062
2.025319
0.669933
0.000000
-13.314192
-14.506141
-13.404661
-12.318164
-14.348059
-12.113666
-13.041592
-15.632325
-15.431411
-16.790212
-16.913013
-15.702400
-11.346757
-10.391331
-11.238027
-12.318164
-14.506141
-13.314192
-11.238027
-10.391331
-10.161957
-10.890952
-11.683860
-9.640579
-10.222896
-12.597057
-14.045630
-18.201953
-18.143722
-19.505061
-16.913013
-19.505061
-18.143722
-15.632325
-17.981030
-19.394683
-16.568154
-15.135380
-17.751883
-19.198750
-14.348059
-16.790212
-15.431411
-13.041592
-12.113666
-19.394683
-17.981030
-16.568154
-19.198750
-17.751883
-15.135380
-14.045630
-10.890952
-10.161957
-11.683860
-9.640579
-8.531138
-9.117953
-11.016909
-12.080791
-13.652919
-10.409780
-7.077592
-8.734261
-11.763202
-13.309434
-14.824905
-16.300808
-17.520381
-18.968123
-16.070550
-14.608501
-17.360099
-18.772154
-13.136784
-10.229661
-11.672695
-14.532533
-15.949687
-7.202911
-8.765947
-5.429130
-4.576161
-3.336801
-4.215332
-5.875268
-10.240530
-7.404282
-8.857544
-11.687222
-13.108446
-17.327573
-18.677050
-15.966057
-14.569806
-17.471588
-18.743188
-16.300808
-18.968123
-17.520381
-18.772154
-17.360099
-18.677050
-17.327573
-18.743188
-17.471588
0.417253
0.000000
0.431676
0.000000
0.472992
0.000000
0.534701
0.000000
0.605078
1.280653
0.000000
-19.152138
-16.098805
-17.801727
-13.141865
-14.625198
-10.282053
-11.707257
-7.524658
-8.897875
-6.138663
-4.708382
-4.941662
-6.227234
-3.205024
-2.397210
-1.616999
-2.309857
-3.642596
-1.016289
-0.455277
0.041838
1.537899
1.740553
0.479404
-0.934413
-2.636014
-3.782760
-1.482816
-0.313527
-0.694876
-1.659776
0.072403
0.269233
0.829619
0.872505
1.235720
1.917695
2.069176
1.580845
2.201960
1.377200
3.449185
3.364506
3.267450
4.808298
-19.152138
-17.801727
