# vtk DataFile Version 3.1
Diffusion Equation
ASCII
DATASET POLYDATA
POINTS 864 float
0.000000 0.000000 0.000000
4.000000 0.000000 0.000000
0.000000 4.000000 0.000000
4.000000 4.000000 0.000000
1.000000 1.000000 0.000000
3.000000 1.000000 0.000000
1.000000 3.000000 0.000000
3.000000 3.000000 0.000000
2.000000 0.000000 0.000000
4.000000 2.000000 0.000000
2.000000 4.000000 0.000000
0.000000 2.000000 0.000000
1.000000 2.000000 0.000000
3.000000 0.000000 0.000000
2.000000 3.000000 0.000000
0.000000 1.000000 0.000000
1.000000 0.000000 0.000000
3.000000 4.000000 0.000000
4.000000 3.000000 0.000000
2.000000 1.000000 0.000000
1.000000 4.000000 0.000000
3.000000 2.000000 0.000000
4.000000 1.000000 0.000000
0.000000 3.000000 0.000000
0.500000 2.500000 0.000000
0.500000 1.500000 0.000000
3.500000 0.500000 0.000000
2.500000 0.500000 0.000000
2.500000 3.500000 0.000000
1.500000 3.500000 0.000000
0.500000 0.500000 0.000000
1.500000 0.500000 0.000000
3.500000 3.500000 0.000000
3.500000 2.500000 0.000000
0.500000 3.500000 0.000000
3.500000 1.500000 0.000000
0.500000 2.000000 0.000000
1.000000 2.500000 0.000000
0.500000 3.000000 0.000000
0.000000 2.500000 0.000000
1.000000 1.500000 0.000000
0.000000 1.500000 0.000000
0.500000 1.000000 0.000000
3.000000 0.500000 0.000000
3.500000 0.000000 0.000000
4.000000 0.500000 0.000000
3.500000 1.000000 0.000000
2.500000 0.000000 0.000000
2.500000 1.000000 0.000000
2.000000 0.500000 0.000000
2.000000 3.500000 0.000000
2.500000 3.000000 0.000000
3.000000 3.500000 0.000000
2.500000 4.000000 0.000000
1.500000 3.000000 0.000000
1.500000 4.000000 0.000000
1.000000 3.500000 0.000000
0.000000 0.500000 0.000000
0.500000 0.000000 0.000000
1.000000 0.500000 0.000000
1.500000 0.000000 0.000000
1.500000 1.000000 0.000000
3.500000 4.000000 0.000000
3.500000 3.000000 0.000000
4.000000 3.500000 0.000000
4.000000 2.500000 0.000000
3.000000 2.500000 0.000000
3.500000 2.000000 0.000000
0.500000 4.000000 0.000000
0.000000 3.500000 0.000000
3.000000 1.500000 0.000000
4.000000 1.500000 0.000000
0.750000 2.250000 0.000000
0.250000 2.250000 0.000000
0.250000 1.750000 0.000000
0.750000 1.750000 0.000000
0.750000 2.750000 0.000000
0.250000 2.750000 0.000000
0.750000 3.250000 0.000000
0.250000 3.250000 0.000000
0.750000 1.250000 0.000000
0.250000 1.250000 0.000000
0.250000 0.750000 0.000000
0.750000 0.750000 0.000000
3.250000 0.250000 0.000000
3.250000 0.750000 0.000000
2.750000 0.750000 0.000000
2.750000 0.250000 0.000000
3.750000 0.250000 0.000000
3.750000 0.750000 0.000000
3.750000 1.250000 0.000000
3.250000 1.250000 0.000000
2.250000 0.250000 0.000000
2.250000 0.750000 0.000000
1.750000 0.750000 0.000000
1.750000 0.250000 0.000000
2.250000 3.250000 0.000000
2.250000 3.750000 0.000000
1.750000 3.750000 0.000000
1.750000 3.250000 0.000000
2.750000 3.250000 0.000000
2.750000 3.750000 0.000000
3.250000 3.250000 0.000000
3.250000 3.750000 0.000000
1.250000 3.250000 0.000000
1.250000 3.750000 0.000000
0.750000 3.750000 0.000000
0.250000 0.250000 0.000000
0.750000 0.250000 0.000000
1.250000 0.250000 0.000000
1.250000 0.750000 0.000000
3.750000 3.750000 0.000000
3.750000 3.250000 0.000000
3.250000 2.750000 0.000000
3.750000 2.750000 0.000000
3.750000 2.250000 0.000000
3.250000 2.250000 0.000000
3.250000 1.750000 0.000000
3.750000 1.750000 0.000000
0.250000 3.750000 0.000000
0.500000 2.250000 0.000000
0.750000 2.000000 0.000000
1.000000 2.250000 0.000000
0.750000 2.500000 0.000000
0.250000 2.000000 0.000000
0.250000 2.500000 0.000000
0.000000 2.250000 0.000000
0.500000 1.750000 0.000000
0.000000 1.750000 0.000000
0.250000 1.500000 0.000000
0.750000 1.500000 0.000000
1.000000 1.750000 0.000000
1.000000 2.750000 0.000000
0.750000 3.000000 0.000000
0.500000 2.750000 0.000000
0.250000 3.000000 0.000000
0.000000 2.750000 0.000000
0.500000 3.250000 0.000000
1.000000 3.250000 0.000000
0.750000 3.500000 0.000000
0.250000 3.500000 0.000000
0.000000 3.250000 0.000000
1.000000 1.250000 0.000000
0.500000 1.250000 0.000000
0.750000 1.000000 0.000000
0.000000 1.250000 0.000000
0.250000 1.000000 0.000000
0.500000 0.750000 0.000000
0.000000 0.750000 0.000000
0.250000 0.500000 0.000000
0.750000 0.500000 0.000000
1.000000 0.750000 0.000000
3.250000 0.500000 0.000000
3.000000 0.250000 0.000000
3.250000 0.000000 0.000000
3.500000 0.250000 0.000000
3.000000 0.750000 0.000000
3.500000 0.750000 0.000000
3.250000 1.000000 0.000000
2.750000 0.500000 0.000000
2.750000 1.000000 0.000000
2.500000 0.750000 0.000000
2.500000 0.250000 0.000000
2.750000 0.000000 0.000000
3.750000 0.000000 0.000000
4.000000 0.250000 0.000000
3.750000 0.500000 0.000000
4.000000 0.750000 0.000000
3.750000 1.000000 0.000000
3.500000 1.250000 0.000000
4.000000 1.250000 0.000000
3.750000 1.500000 0.000000
3.250000 1.500000 0.000000
3.000000 1.250000 0.000000
2.250000 0.000000 0.000000
2.250000 0.500000 0.000000
2.000000 0.250000 0.000000
2.250000 1.000000 0.000000
2.000000 0.750000 0.000000
1.750000 0.500000 0.000000
1.750000 1.000000 0.000000
1.500000 0.750000 0.000000
1.500000 0.250000 0.000000
1.750000 0.000000 0.000000
2.250000 3.500000 0.000000
2.000000 3.250000 0.000000
2.250000 3.000000 0.000000
2.500000 3.250000 0.000000
2.000000 3.750000 0.000000
2.500000 3.750000 0.000000
2.250000 4.000000 0.000000
1.750000 3.500000 0.000000
1.750000 4.000000 0.000000
1.500000 3.750000 0.000000
1.500000 3.250000 0.000000
1.750000 3.000000 0.000000
2.750000 3.000000 0.000000
3.000000 3.250000 0.000000
2.750000 3.500000 0.000000
3.000000 3.750000 0.000000
2.750000 4.000000 0.000000
3.250000 3.500000 0.000000
3.250000 3.000000 0.000000
3.500000 3.250000 0.000000
3.500000 3.750000 0.000000
3.250000 4.000000 0.000000
1.250000 3.000000 0.000000
1.250000 3.500000 0.000000
1.250000 4.000000 0.000000
1.000000 3.750000 0.000000
0.750000 4.000000 0.000000
0.500000 3.750000 0.000000
0.000000 0.250000 0.000000
0.250000 0.000000 0.000000
0.500000 0.250000 0.000000
0.750000 0.000000 0.000000
1.000000 0.250000 0.000000
1.250000 0.500000 0.000000
1.250000 0.000000 0.000000
1.250000 1.000000 0.000000
3.750000 4.000000 0.000000
3.750000 3.500000 0.000000
4.000000 3.750000 0.000000
3.750000 3.000000 0.000000
4.000000 3.250000 0.000000
3.500000 2.750000 0.000000
3.000000 2.750000 0.000000
3.250000 2.500000 0.000000
3.750000 2.500000 0.000000
4.000000 2.750000 0.000000
4.000000 2.250000 0.000000
3.500000 2.250000 0.000000
3.750000 2.000000 0.000000
3.000000 2.250000 0.000000
3.250000 2.000000 0.000000
3.500000 1.750000 0.000000
3.000000 1.750000 0.000000
4.000000 1.750000 0.000000
0.250000 4.000000 0.000000
0.000000 3.750000 0.000000
0.625000 2.125000 0.000000
0.625000 2.375000 0.000000
0.375000 2.375000 0.000000
0.375000 2.125000 0.000000
0.875000 2.125000 0.000000
0.625000 1.875000 0.000000
0.875000 1.875000 0.000000
0.875000 2.375000 0.000000
0.875000 2.625000 0.000000
0.625000 2.625000 0.000000
0.125000 2.125000 0.000000
0.125000 1.875000 0.000000
0.375000 1.875000 0.000000
0.125000 2.375000 0.000000
0.375000 2.625000 0.000000
0.125000 2.625000 0.000000
0.375000 1.625000 0.000000
0.625000 1.625000 0.000000
0.125000 1.625000 0.000000
0.125000 1.375000 0.000000
0.375000 1.375000 0.000000
0.875000 1.625000 0.000000
0.625000 1.375000 0.000000
0.875000 1.375000 0.000000
0.875000 2.875000 0.000000
0.625000 2.875000 0.000000
0.875000 3.125000 0.000000
0.625000 3.125000 0.000000
0.375000 2.875000 0.000000
0.125000 2.875000 0.000000
0.375000 3.125000 0.000000
0.125000 3.125000 0.000000
0.625000 3.375000 0.000000
0.375000 3.375000 0.000000
0.875000 3.375000 0.000000
1.125000 3.125000 0.000000
1.125000 3.375000 0.000000
0.875000 3.625000 0.000000
0.625000 3.625000 0.000000
0.125000 3.375000 0.000000
0.375000 3.625000 0.000000
0.125000 3.625000 0.000000
0.875000 1.125000 0.000000
0.625000 1.125000 0.000000
0.375000 1.125000 0.000000
0.625000 0.875000 0.000000
0.875000 0.875000 0.000000
0.125000 1.125000 0.000000
0.125000 0.875000 0.000000
0.375000 0.875000 0.000000
0.375000 0.625000 0.000000
0.625000 0.625000 0.000000
0.125000 0.625000 0.000000
0.125000 0.375000 0.000000
0.375000 0.375000 0.000000
0.875000 0.625000 0.000000
0.625000 0.375000 0.000000
0.875000 0.375000 0.000000
1.125000 0.625000 0.000000
1.125000 0.875000 0.000000
3.125000 0.375000 0.000000
3.375000 0.375000 0.000000
3.375000 0.625000 0.000000
3.125000 0.625000 0.000000
3.125000 0.125000 0.000000
2.875000 0.375000 0.000000
2.875000 0.125000 0.000000
3.375000 0.125000 0.000000
3.625000 0.125000 0.000000
3.625000 0.375000 0.000000
3.125000 0.875000 0.000000
2.875000 0.875000 0.000000
2.875000 0.625000 0.000000
3.375000 0.875000 0.000000
3.625000 0.625000 0.000000
3.625000 0.875000 0.000000
3.375000 1.125000 0.000000
3.125000 1.125000 0.000000
2.625000 0.625000 0.000000
2.625000 0.375000 0.000000
2.625000 0.875000 0.000000
2.375000 0.875000 0.000000
2.375000 0.625000 0.000000
2.625000 0.125000 0.000000
2.375000 0.375000 0.000000
2.375000 0.125000 0.000000
3.875000 0.125000 0.000000
3.875000 0.375000 0.000000
3.875000 0.625000 0.000000
3.875000 0.875000 0.000000
3.875000 1.125000 0.000000
3.625000 1.125000 0.000000
3.625000 1.375000 0.000000
3.375000 1.375000 0.000000
3.875000 1.375000 0.000000
3.875000 1.625000 0.000000
3.625000 1.625000 0.000000
3.125000 1.375000 0.000000
3.375000 1.625000 0.000000
3.125000 1.625000 0.000000
2.125000 0.125000 0.000000
2.125000 0.375000 0.000000
2.125000 0.625000 0.000000
1.875000 0.375000 0.000000
1.875000 0.125000 0.000000
2.125000 0.875000 0.000000
1.875000 0.875000 0.000000
1.875000 0.625000 0.000000
1.625000 0.625000 0.000000
1.625000 0.375000 0.000000
1.625000 0.875000 0.000000
1.375000 0.875000 0.000000
1.375000 0.625000 0.000000
1.625000 0.125000 0.000000
1.375000 0.375000 0.000000
1.375000 0.125000 0.000000
2.125000 3.375000 0.000000
2.375000 3.375000 0.000000
2.375000 3.625000 0.000000
2.125000 3.625000 0.000000
2.125000 3.125000 0.000000
1.875000 3.375000 0.000000
1.875000 3.125000 0.000000
2.375000 3.125000 0.000000
2.625000 3.125000 0.000000
2.625000 3.375000 0.000000
2.125000 3.875000 0.000000
[...]
POINT_DATA 864
SCALARS Temperature float
LOOKUP_TABLE default
0.000000
0.000000
-25.431853
-25.431853
3.832309
3.832309
-12.663046
-12.663046
0.000000
-2.786186
-25.571027
-2.786186
0.632865
0.000000
-16.439600
0.949168
0.000000
-24.686128
-12.602622
6.040829
-24.686128
0.632865
0.949168
-12.602622
-6.431376
0.695513
1.078382
2.567137
-20.165118
-20.165118
1.078382
2.567137
-18.651898
-6.431376
-18.651898
0.695513
-1.967038
-4.093179
-12.426602
-7.074270
3.285521
-0.117906
1.583374
1.858560
0.000000
0.782135
1.583374
0.000000
5.658452
2.800659
-20.562804
-15.854593
-19.195726
-25.289741
-15.854593
-25.289741
-19.195726
0.782135
0.000000
1.858560
0.000000
5.658452
-24.360667
-12.426602
-18.630661
-7.074270
-4.093179
-1.967038
-24.360667
-18.630661
3.285521
-0.117906
-2.964463
-4.553360
-1.036876
0.662888
-8.676739
-9.620568
-15.740931
-15.584408
2.347430
0.786055
1.100113
2.038762
0.731683
2.038762
3.534792
1.110924
0.464101
1.100113
0.786055
2.347430
1.342501
4.261820
4.261820
1.342501
-18.242685
-22.895058
-22.895058
-18.242685
-17.166284
-22.331170
-15.740931
-21.706614
-17.166284
-22.331170
-21.706614
0.464101
0.731683
1.110924
3.534792
-21.622304
-15.584408
-8.676739
-9.620568
-4.553360
-2.964463
0.662888
-1.036876
-21.622304
-3.977182
-0.905997
-1.448767
-5.539653
-2.584113
-6.918550
-4.740136
-0.409458
-1.242998
0.082805
1.750125
2.206786
-7.485430
-12.307030
-9.291050
-12.553628
-9.726870
-15.593529
-16.260936
-18.823623
-18.618967
-15.594380
3.851005
1.353148
2.430101
0.601473
1.104889
1.451824
0.983547
0.857067
1.429271
2.814915
1.429271
0.925286
0.000000
0.569254
2.814915
1.451824
2.430101
2.265740
5.076230
4.006314
1.254877
0.000000
0.000000
0.428021
0.857067
0.983547
1.104889
1.353148
0.601473
0.082805
1.750125
3.851005
0.000000
2.743360
1.371566
5.950605
4.342372
2.743360
5.950605
4.006314
1.254877
0.000000
-20.461751
-18.368733
-16.300918
-17.852108
-22.976202
-22.665011
-25.497055
-20.461751
-25.497055
-22.665011
-17.852108
-16.300918
-14.948962
-16.260936
-19.706467
-21.977609
-24.994517
-18.823623
-12.307030
-15.593529
-21.583384
-24.450541
-14.948962
-19.706467
-24.994517
-21.977609
-24.450541
-21.583384
0.428021
0.000000
0.569254
0.000000
0.925286
2.265740
0.000000
5.076230
-24.509280
-18.618967
-21.737116
-12.553628
-15.594380
-9.291050
-7.485430
-5.539653
-6.918550
-9.726870
-4.740136
-3.977182
-2.584113
-1.448767
-0.905997
-0.409458
2.206786
-1.242998
-24.509280
-21.737116
-2.452447
-4.726267
-5.467997
-3.268849
-1.171037
-0.653887
0.649845
-3.511830
-6.448775
-7.479889
-3.664289
-1.911142
-1.498089
-5.819608
-8.062555
-8.332986
-0.165856
0.675649
-0.577499
0.339275
0.730563
1.976827
1.537510
2.808253
-10.165088
-10.667871
-14.247304
-14.021989
-10.971004
-11.124400
-14.039644
-14.083024
-17.200820
-17.110982
-17.497331
-15.367962
-18.084832
-20.422209
-20.188639
-17.106596
-20.115834
-20.150265
3.110358
1.930834
1.208212
1.876156
2.758315
0.861448
1.035123
1.310774
1.121885
1.498727
0.931001
0.632909
0.742135
2.033512
0.951841
1.236046
2.621807
3.841330
1.236046
0.951841
1.498727
2.033512
0.414246
1.540868
0.509219
0.325170
0.258313
0.742135
2.758315
3.841330
2.621807
1.876156
1.121885
1.310774
1.930834
3.110358
3.094586
1.800269
4.567718
4.968492
3.394704
0.591621
1.977168
0.649427
0.223043
0.632909
0.931001
1.035123
0.861448
1.208212
0.730563
1.537510
0.339275
-0.577499
-0.165856
2.808253
0.675649
1.976827
0.678543
2.064542
3.536900
2.064542
0.678543
5.148448
5.148448
3.536900
3.394704
1.977168
4.968492
4.567718
3.094586
0.649427
1.800269
0.591621
-19.406962
-19.178887
-21.545392
-21.722309
-17.335246
-19.406962
-17.335246
-17.059098
-16.452527
-18.723431
-24.233290
-24.233290
-21.722309
-24.085260
-21.216040
-23.818608
-21.545392
-19.178887
-24.085260
-23.818608
-21.216040
-17.059098
-18.723431
-16.452527
-15.367962
-18.084832
-14.247304
-17.497331
-20.800800
-23.495335
-20.422209
-23.202812
-17.200820
-20.188639
-14.021989
-10.165088
-10.667871
-14.039644
-17.110982
-23.023527
-20.115834
-23.016462
-20.800800
-23.495335
-23.202812
-23.023527
-23.016462
0.223043
0.258313
0.325170
0.414246
0.509219
1.540868
-23.241676
-20.150265
-17.106596
-14.083024
-10.971004
-11.124400
-7.479889
-8.062555
-6.448775
-3.511830
-4.726267
-8.332986
-5.467997
-5.819608
-3.664289
-3.268849
-2.452447
-1.498089
-1.911142
-1.171037
0.649845
-0.653887
-23.241676
-3.529648
-2.915962
-1.494450
-1.873068
-5.150241
-4.185088
-6.043809
-4.316406
-6.719634
-5.689415
-3.517235
-2.329129
-0.198189
-0.342648
-2.273582
-0.061421
-1.131751
0.069139
1.374426
1.481630
-2.694507
-4.897870
-7.035753
-5.672099
-8.193473
-9.028357
-7.815710
-2.736040
-4.693908
-3.713308
-1.757187
-1.962499
-1.191786
-0.777228
-7.035869
-5.862942
-8.233159
-9.485768
-9.700682
-8.366274
0.199277
-0.424040
0.336045
1.164986
1.266685
-0.628659
-0.068041
0.484938
0.290794
0.647300
1.019730
1.079444
2.455465
2.808231
2.111086
1.792461
3.029485
3.634940
-9.672673
-12.345038
-10.453629
-12.355306
-10.838585
-14.078726
-14.634205
-15.936017
-15.638722
-14.019863
-12.497159
-11.066857
-12.590361
-11.144032
-14.064603
-15.581553
-15.591517
-14.090191
-17.138706
-17.315065
-18.715631
-18.623813
-17.104642
-17.759081
-18.984098
-16.719376
-14.139937
-15.983300
-18.419613
-19.446319
-20.284647
-20.598451
-21.826678
-21.624917
-20.134323
-18.626019
-17.108963
-20.126231
-21.583878
-21.687225
-20.166467
3.922621
2.454877
3.032927
1.519097
1.955290
0.990361
1.301994
2.275974
1.555685
1.716491
2.411484
3.311832
0.818596
0.987843
1.137884
1.000901
1.012582
1.246281
1.287810
1.002627
0.949953
1.239635
1.750164
0.907034
0.800867
0.674118
0.619060
0.437062
0.508493
0.835465
1.639417
2.332278
1.087266
0.644526
0.826850
1.390238
3.203294
2.071800
2.879293
4.255096
4.594331
1.087266
1.639417
1.390238
0.826850
1.239635
0.644526
0.835465
1.750164
1.287810
1.716491
2.411484
2.332278
0.462204
0.000000
0.367793
1.021603
2.071800
1.679488
0.552954
0.000000
0.000000
0.288205
0.508493
0.000000
0.236386
0.674118
0.949953
3.311832
2.275974
3.032927
3.203294
4.594331
4.255096
2.879293
1.555685
1.955290
1.246281
1.002627
1.137884
1.301994
2.454877
1.519097
1.792461
3.029485
3.922621
2.431977
3.800914
3.265732
1.899893
1.189446
5.414027
4.800302
4.157880
5.832991
5.082388
3.484235
2.670628
0.623992
0.000000
1.306012
2.031919
0.667626
0.000000
0.000000
0.218549
0.437062
0.619060
0.800867
0.907034
1.012582
1.000901
0.987843
0.990361
0.818596
0.647300
1.019730
1.079444
0.484938
0.336045
1.164986
2.111086
0.290794
-0.068041
-0.424040
-0.628659
-1.191786
-0.777228
0.199277
2.455465
3.634940
1.266685
0.069139
1.374426
2.808231
0.000000
1.364305
0.682171
2.786397
2.075351
4.322426
3.554244
1.364305
2.786397
2.031919
0.667626
0.000000
6.018556
5.170067
4.322426
6.018556
5.082388
3.484235
2.670628
4.157880
3.265732
1.899893
1.306012
5.832991
4.800302
3.800914
5.414027
2.431977
0.623992
0.000000
1.189446
1.679488
0.552954
0.000000
-19.321910
-20.537793
-19.435702
-18.337744
-20.337128
-18.082538
-18.979233
-21.655465
-21.397234
-22.797020
-22.956050
-21.745241
-17.369044
-16.405662
-17.233827
-18.337744
-20.537793
-19.321910
-17.233827
-16.405662
-16.121343
-16.803931
-17.547942
-15.480081
-15.983300
-18.419613
-19.952114
-24.252787
-24.177002
-25.552643
-22.956050
-25.552643
-24.177002
-21.655465
-23.963997
-25.408310
-22.507054
-21.012973
-23.659257
-25.149357
-20.337128
-22.797020
-21.397234
-18.979233
-18.082538
-25.408310
-23.963997
-22.507054
-25.149357
-23.659257
-21.012973
-19.952114
-16.803931
-16.121343
-17.547942
-15.480081
-14.139937
-14.634205
-16.719376
-17.759081
-19.446319
-15.936017
-12.345038
-14.078726
-17.315065
-18.984098
-20.598451
-22.150585
-23.339831
-24.836826
-21.826678
-20.284647
-23.095242
-24.554580
-18.715631
-15.638722
-17.138706
-20.134323
-21.624917
-12.355306
-14.019863
-10.453629
-9.672673
-8.193473
-9.028357
-10.838585
-15.581553
-12.497159
-14.064603
-17.104642
-18.623813
-22.995386
-24.383581
-21.583878
-20.126231
-23.096811
-24.394738
-22.150585
-24.836826
-23.339831
-24.554580
-23.095242
-24.383581
-22.995386
-24.394738
-23.096811
0.218549
0.000000
0.236386
0.000000
0.288205
0.000000
0.367793
0.000000
0.462204
1.021603
0.000000
-24.775145
-21.687225
-23.412463
-18.626019
-20.166467
-15.591517
-17.108963
-12.590361
-14.090191
-11.066857
-9.485768
-9.700682
-11.144032
-7.815710
-7.035753
-6.043809
-6.719634
-8.233159
-5.672099
-4.897870
-4.185088
-2.694507
-2.273582
-3.529648
-5.150241
-7.035869
-8.366274
-5.689415
-4.316406
-4.693908
-5.862942
-3.713308
-3.517235
-2.736040
-2.915962
-2.329129
-1.873068
-1.494450
-1.757187
-1.131751
-1.962499
-0.342648
-0.198189
-0.061421
1.481630
-24.775145
-23.412463
