# vtk DataFile Version 3.1
Diffusion Equation
ASCII
DATASET POLYDATA
POINTS 864 float
0.000000 0.000000 0.000000
4.000000 0.000000 0.000000
0.000000 4.000000 0.000000
4.000000 4.000000 0.000000
1.000000 1.000000 0.000000
3.000000 1.000000 0.000000
1.000000 3.000000 0.000000
3.000000 3.000000 0.000000
2.000000 0.000000 0.000000
4.000000 2.000000 0.000000
2.000000 4.000000 0.000000
0.000000 2.000000 0.000000
1.000000 2.000000 0.000000
3.000000 0.000000 0.000000
2.000000 3.000000 0.000000
0.000000 1.000000 0.000000
1.000000 0.000000 0.000000
3.000000 4.000000 0.000000
4.000000 3.000000 0.000000
2.000000 1.000000 0.000000
1.000000 4.000000 0.000000
3.000000 2.000000 0.000000
4.000000 1.000000 0.000000
0.000000 3.000000 0.000000
0.500000 2.500000 0.000000
0.500000 1.500000 0.000000
3.500000 0.500000 0.000000
2.500000 0.500000 0.000000
2.500000 3.500000 0.000000
1.500000 3.500000 0.000000
0.500000 0.500000 0.000000
1.500000 0.500000 0.000000
3.500000 3.500000 0.000000
3.500000 2.500000 0.000000
0.500000 3.500000 0.000000
3.500000 1.500000 0.000000
0.500000 2.000000 0.000000
1.000000 2.500000 0.000000
0.500000 3.000000 0.000000
0.000000 2.500000 0.000000
1.000000 1.500000 0.000000
0.000000 1.500000 0.000000
0.500000 1.000000 0.000000
3.000000 0.500000 0.000000
3.500000 0.000000 0.000000
4.000000 0.500000 0.000000
3.500000 1.000000 0.000000
2.500000 0.000000 0.000000
2.500000 1.000000 0.000000
2.000000 0.500000 0.000000
2.000000 3.500000 0.000000
2.500000 3.000000 0.000000
3.000000 3.500000 0.000000
2.500000 4.000000 0.000000
1.500000 3.000000 0.000000
1.500000 4.000000 0.000000
1.000000 3.500000 0.000000
0.000000 0.500000 0.000000
0.500000 0.000000 0.000000
1.000000 0.500000 0.000000
1.500000 0.000000 0.000000
1.500000 1.000000 0.000000
3.500000 4.000000 0.000000
3.500000 3.000000 0.000000
4.000000 3.500000 0.000000
4.000000 2.500000 0.000000
3.000000 2.500000 0.000000
3.500000 2.000000 0.000000
0.500000 4.000000 0.000000
0.000000 3.500000 0.000000
3.000000 1.500000 0.000000
4.000000 1.500000 0.000000
0.750000 2.250000 0.000000
0.250000 2.250000 0.000000
0.250000 1.750000 0.000000
0.750000 1.750000 0.000000
0.750000 2.750000 0.000000
0.250000 2.750000 0.000000
0.750000 3.250000 0.000000
0.250000 3.250000 0.000000
0.750000 1.250000 0.000000
0.250000 1.250000 0.000000
0.250000 0.750000 0.000000
0.750000 0.750000 0.000000
3.250000 0.250000 0.000000
3.250000 0.750000 0.000000
2.750000 0.750000 0.000000
2.750000 0.250000 0.000000
3.750000 0.250000 0.000000
3.750000 0.750000 0.000000
3.750000 1.250000 0.000000
3.250000 1.250000 0.000000
2.250000 0.250000 0.000000
2.250000 0.750000 0.000000
1.750000 0.750000 0.000000
1.750000 0.250000 0.000000
2.250000 3.250000 0.000000
2.250000 3.750000 0.000000
1.750000 3.750000 0.000000
1.750000 3.250000 0.000000
2.750000 3.250000 0.000000
2.750000 3.750000 0.000000
3.250000 3.250000 0.000000
3.250000 3.750000 0.000000
1.250000 3.250000 0.000000
1.250000 3.750000 0.000000
0.750000 3.750000 0.000000
0.250000 0.250000 0.000000
0.750000 0.250000 0.000000
1.250000 0.250000 0.000000
1.250000 0.750000 0.000000
3.750000 3.750000 0.000000
3.750000 3.250000 0.000000
3.250000 2.750000 0.000000
3.750000 2.750000 0.000000
3.750000 2.250000 0.000000
3.250000 2.250000 0.000000
3.250000 1.750000 0.000000
3.750000 1.750000 0.000000
0.250000 3.750000 0.000000
0.500000 2.250000 0.000000
0.750000 2.000000 0.000000
1.000000 2.250000 0.000000
0.750000 2.500000 0.000000
0.250000 2.000000 0.000000
0.250000 2.500000 0.000000
0.000000 2.250000 0.000000
0.500000 1.750000 0.000000
0.000000 1.750000 0.000000
0.250000 1.500000 0.000000
0.750000 1.500000 0.000000
1.000000 1.750000 0.000000
1.000000 2.750000 0.000000
0.750000 3.000000 0.000000
0.500000 2.750000 0.000000
0.250000 3.000000 0.000000
0.000000 2.750000 0.000000
0.500000 3.250000 0.000000
1.000000 3.250000 0.000000
0.750000 3.500000 0.000000
0.250000 3.500000 0.000000
0.000000 3.250000 0.000000
1.000000 1.250000 0.000000
0.500000 1.250000 0.000000
0.750000 1.000000 0.000000
0.000000 1.250000 0.000000
0.250000 1.000000 0.000000
0.500000 0.750000 0.000000
0.000000 0.750000 0.000000
0.250000 0.500000 0.000000
0.750000 0.500000 0.000000
1.000000 0.750000 0.000000
3.250000 0.500000 0.000000
3.000000 0.250000 0.000000
3.250000 0.000000 0.000000
3.500000 0.250000 0.000000
3.000000 0.750000 0.000000
3.500000 0.750000 0.000000
3.250000 1.000000 0.000000
2.750000 0.500000 0.000000
2.750000 1.000000 0.000000
2.500000 0.750000 0.000000
2.500000 0.250000 0.000000
2.750000 0.000000 0.000000
3.750000 0.000000 0.000000
4.000000 0.250000 0.000000
3.750000 0.500000 0.000000
4.000000 0.750000 0.000000
3.750000 1.000000 0.000000
3.500000 1.250000 0.000000
4.000000 1.250000 0.000000
3.750000 1.500000 0.000000
3.250000 1.500000 0.000000
3.000000 1.250000 0.000000
2.250000 0.000000 0.000000
2.250000 0.500000 0.000000
2.000000 0.250000 0.000000
2.250000 1.000000 0.000000
2.000000 0.750000 0.000000
1.750000 0.500000 0.000000
1.750000 1.000000 0.000000
1.500000 0.750000 0.000000
1.500000 0.250000 0.000000
1.750000 0.000000 0.000000
2.250000 3.500000 0.000000
2.000000 3.250000 0.000000
2.250000 3.000000 0.000000
2.500000 3.250000 0.000000
2.000000 3.750000 0.000000
2.500000 3.750000 0.000000
2.250000 4.000000 0.000000
1.750000 3.500000 0.000000
1.750000 4.000000 0.000000
1.500000 3.750000 0.000000
1.500000 3.250000 0.000000
1.750000 3.000000 0.000000
2.750000 3.000000 0.000000
3.000000 3.250000 0.000000
2.750000 3.500000 0.000000
3.000000 3.750000 0.000000
2.750000 4.000000 0.000000
3.250000 3.500000 0.000000
3.250000 3.000000 0.000000
3.500000 3.250000 0.000000
3.500000 3.750000 0.000000
3.250000 4.000000 0.000000
1.250000 3.000000 0.000000
1.250000 3.500000 0.000000
1.250000 4.000000 0.000000
1.000000 3.750000 0.000000
0.750000 4.000000 0.000000
0.500000 3.750000 0.000000
0.000000 0.250000 0.000000
0.250000 0.000000 0.000000
0.500000 0.250000 0.000000
0.750000 0.000000 0.000000
1.000000 0.250000 0.000000
1.250000 0.500000 0.000000
1.250000 0.000000 0.000000
1.250000 1.000000 0.000000
3.750000 4.000000 0.000000
3.750000 3.500000 0.000000
4.000000 3.750000 0.000000
3.750000 3.000000 0.000000
4.000000 3.250000 0.000000
3.500000 2.750000 0.000000
3.000000 2.750000 0.000000
3.250000 2.500000 0.000000
3.750000 2.500000 0.000000
4.000000 2.750000 0.000000
4.000000 2.250000 0.000000
3.500000 2.250000 0.000000
3.750000 2.000000 0.000000
3.000000 2.250000 0.000000
3.250000 2.000000 0.000000
3.500000 1.750000 0.000000
3.000000 1.750000 0.000000
4.000000 1.750000 0.000000
0.250000 4.000000 0.000000
0.000000 3.750000 0.000000
0.625000 2.125000 0.000000
0.625000 2.375000 0.000000
0.375000 2.375000 0.000000
0.375000 2.125000 0.000000
0.875000 2.125000 0.000000
0.625000 1.875000 0.000000
0.875000 1.875000 0.000000
0.875000 2.375000 0.000000
0.875000 2.625000 0.000000
0.625000 2.625000 0.000000
0.125000 2.125000 0.000000
0.125000 1.875000 0.000000
0.375000 1.875000 0.000000
0.125000 2.375000 0.000000
0.375000 2.625000 0.000000
0.125000 2.625000 0.000000
0.375000 1.625000 0.000000
0.625000 1.625000 0.000000
0.125000 1.625000 0.000000
0.125000 1.375000 0.000000
0.375000 1.375000 0.000000
0.875000 1.625000 0.000000
0.625000 1.375000 0.000000
0.875000 1.375000 0.000000
0.875000 2.875000 0.000000
0.625000 2.875000 0.000000
0.875000 3.125000 0.000000
0.625000 3.125000 0.000000
0.375000 2.875000 0.000000
0.125000 2.875000 0.000000
0.375000 3.125000 0.000000
0.125000 3.125000 0.000000
0.625000 3.375000 0.000000
0.375000 3.375000 0.000000
0.875000 3.375000 0.000000
1.125000 3.125000 0.000000
1.125000 3.375000 0.000000
0.875000 3.625000 0.000000
0.625000 3.625000 0.000000
0.125000 3.375000 0.000000
0.375000 3.625000 0.000000
0.125000 3.625000 0.000000
0.875000 1.125000 0.000000
0.625000 1.125000 0.000000
0.375000 1.125000 0.000000
0.625000 0.875000 0.000000
0.875000 0.875000 0.000000
0.125000 1.125000 0.000000
0.125000 0.875000 0.000000
0.375000 0.875000 0.000000
0.375000 0.625000 0.000000
0.625000 0.625000 0.000000
0.125000 0.625000 0.000000
0.125000 0.375000 0.000000
0.375000 0.375000 0.000000
0.875000 0.625000 0.000000
0.625000 0.375000 0.000000
0.875000 0.375000 0.000000
1.125000 0.625000 0.000000
1.125000 0.875000 0.000000
3.125000 0.375000 0.000000
3.375000 0.375000 0.000000
3.375000 0.625000 0.000000
3.125000 0.625000 0.000000
3.125000 0.125000 0.000000
2.875000 0.375000 0.000000
2.875000 0.125000 0.000000
3.375000 0.125000 0.000000
3.625000 0.125000 0.000000
3.625000 0.375000 0.000000
3.125000 0.875000 0.000000
2.875000 0.875000 0.000000
2.875000 0.625000 0.000000
3.375000 0.875000 0.000000
3.625000 0.625000 0.000000
3.625000 0.875000 0.000000
3.375000 1.125000 0.000000
3.125000 1.125000 0.000000
2.625000 0.625000 0.000000
2.625000 0.375000 0.000000
2.625000 0.875000 0.000000
2.375000 0.875000 0.000000
2.375000 0.625000 0.000000
2.625000 0.125000 0.000000
2.375000 0.375000 0.000000
2.375000 0.125000 0.000000
3.875000 0.125000 0.000000
3.875000 0.375000 0.000000
3.875000 0.625000 0.000000
3.875000 0.875000 0.000000
3.875000 1.125000 0.000000
3.625000 1.125000 0.000000
3.625000 1.375000 0.000000
3.375000 1.375000 0.000000
3.875000 1.375000 0.000000
3.875000 1.625000 0.000000
3.625000 1.625000 0.000000
3.125000 1.375000 0.000000
3.375000 1.625000 0.000000
3.125000 1.625000 0.000000
2.125000 0.125000 0.000000
2.125000 0.375000 0.000000
2.125000 0.625000 0.000000
1.875000 0.375000 0.000000
1.875000 0.125000 0.000000
2.125000 0.875000 0.000000
1.875000 0.875000 0.000000
1.875000 0.625000 0.000000
1.625000 0.625000 0.000000
1.625000 0.375000 0.000000
1.625000 0.875000 0.000000
1.375000 0.875000 0.000000
1.375000 0.625000 0.000000
1.625000 0.125000 0.000000
1.375000 0.375000 0.000000
1.375000 0.125000 0.000000
2.125000 3.375000 0.000000
2.375000 3.375000 0.000000
2.375000 3.625000 0.000000
2.125000 3.625000 0.000000
2.125000 3.125000 0.000000
1.875000 3.375000 0.000000
1.875000 3.125000 0.000000
2.375000 3.125000 0.000000
2.625000 3.125000 0.000000
2.625000 3.375000 0.000000
2.125000 3.875000 0.000000
[...]
POINT_DATA 864
SCALARS Temperature float
LOOKUP_TABLE default
0.000000
0.000000
-17.873171
-17.873171
5.507202
5.507202
-5.426850
-5.426850
0.000000
1.982071
-17.413269
1.982071
5.397358
0.000000
-8.324292
3.196454
0.000000
-16.842463
-5.804477
6.571272
-16.842463
5.397358
3.196454
-5.804477
-0.509571
4.178117
2.082194
3.041033
-12.144728
-12.144728
2.082194
3.041033
-11.196706
-0.509571
-11.196706
4.178117
2.799445
1.866686
-5.551893
-1.178993
6.718425
3.398587
3.740774
2.622053
0.000000
1.856516
3.740774
0.000000
6.368501
3.170502
-12.425535
-7.893911
-11.478818
-17.224369
-7.893911
-17.224369
-11.478818
1.856516
0.000000
2.622053
0.000000
6.368501
-16.723577
-5.551893
-11.262186
-1.178993
1.866686
2.799445
-16.723577
-11.262186
6.718425
3.398587
2.407525
0.802575
3.111143
4.787887
-2.186480
-3.225956
-8.397615
-8.433071
5.087055
3.646572
2.723345
3.450053
1.176891
3.450053
4.392443
1.419666
0.985115
2.723345
3.646572
5.087055
1.553643
4.786948
4.786948
1.553643
-10.155470
-14.768617
-14.768617
-10.155470
-9.369482
-14.389070
-8.397615
-14.017444
-9.369482
-14.389070
-14.017444
0.985115
1.176891
1.419666
4.392443
-14.090601
-8.433071
-2.186480
-3.225956
0.802575
2.407525
4.787887
3.111143
-14.090601
1.386193
3.859108
3.927274
0.406930
2.183644
-1.016212
0.612980
3.727879
2.909074
3.590335
5.200540
6.325981
-0.949487
-5.320030
-2.858756
-5.737081
-3.344967
-8.374863
-8.714011
-11.258041
-11.229012
-8.464468
6.529784
4.167013
4.446370
3.477428
3.331080
3.003924
2.628562
1.914519
2.335695
3.979775
2.335695
1.305028
0.000000
1.062434
3.979775
3.003924
4.446370
2.868919
6.068426
4.649072
1.503934
0.000000
0.000000
0.958028
1.914519
2.628562
3.331080
4.167013
3.477428
3.590335
5.200540
6.529784
0.000000
3.138978
1.569906
6.523190
4.830344
3.138978
6.523190
4.649072
1.503934
0.000000
-12.354079
-10.246812
-8.222852
-9.871295
-14.824316
-14.611879
-17.363226
-12.354079
-17.363226
-14.611879
-9.871295
-8.222852
-7.213928
-8.714011
-11.823856
-14.165164
-17.031705
-11.258041
-5.320030
-8.374863
-13.991147
-16.721449
-7.213928
-11.823856
-17.031705
-14.165164
-16.721449
-13.991147
0.958028
0.000000
1.062434
0.000000
1.305028
2.868919
0.000000
6.068426
-16.930664
-11.229012
-14.225870
-5.737081
-8.464468
-2.858756
-0.949487
0.406930
-1.016212
-3.344967
0.612980
1.386193
2.183644
3.927274
3.859108
3.727879
6.325981
2.909074
-16.930664
-14.225870
2.618621
0.929497
0.172676
1.798855
3.902755
3.798363
5.096984
2.156897
-0.210012
-1.277138
1.401294
2.551676
2.960605
-0.188112
-1.894524
-2.184109
3.656304
4.477765
3.256782
3.532063
3.899474
5.761613
4.662309
5.886120
-3.363319
-3.966454
-6.963978
-6.908787
-4.335551
-4.520708
-7.017774
-7.102688
-9.798537
-9.800539
-9.948383
-7.764038
-10.340973
-12.719452
-12.606369
-9.840075
-12.616816
-12.693184
5.413313
4.365383
3.724664
3.660572
4.329373
3.415916
2.971907
3.201598
2.431940
2.718233
2.281959
1.429199
1.511606
3.097448
1.664729
1.860625
3.468287
4.987977
1.860625
1.664729
2.718233
3.097448
0.620718
2.054932
0.681460
0.560005
0.512071
1.511606
4.329373
4.987977
3.468287
3.660572
2.431940
3.201598
4.365383
5.413313
3.738723
2.209024
5.369508
5.582108
3.904404
0.731114
2.309749
0.764527
0.485994
1.429199
2.281959
2.971907
3.415916
3.724664
3.899474
4.662309
3.532063
3.256782
3.656304
5.886120
4.477765
5.761613
0.780980
2.358498
3.981978
2.358498
0.780980
5.678184
5.678184
3.981978
3.904404
2.309749
5.582108
5.369508
3.738723
0.764527
2.209024
0.731114
-11.285949
-11.122358
-13.460891
-13.583895
-9.227273
-11.285949
-9.227273
-9.025292
-8.577252
-10.795468
-16.083184
-16.083184
-13.583895
-15.982975
-13.233912
-15.805271
-13.460891
-11.122358
-15.982975
-15.805271
-13.233912
-9.025292
-10.795468
-8.577252
-7.764038
-10.340973
-6.963978
-9.948383
-12.955022
-15.597833
-12.719452
-15.427244
-9.798537
-12.606369
-6.908787
-3.363319
-3.966454
-7.017774
-9.800539
-15.354780
-12.616816
-15.424739
-12.955022
-15.597833
-15.427244
-15.354780
-15.424739
0.485994
0.512071
0.560005
0.620718
0.681460
2.054932
-15.689820
-12.693184
-9.840075
-7.102688
-4.335551
-4.520708
-1.277138
-1.894524
-0.210012
2.156897
0.929497
-2.184109
0.172676
-0.188112
1.401294
1.798855
2.618621
2.960605
2.551676
3.902755
5.096984
3.798363
-15.689820
1.837442
2.152641
3.270627
3.198866
0.496794
1.477315
-0.110357
1.042053
-0.809705
-0.055179
1.548453
2.437380
4.565795
4.730824
3.100600
4.387204
3.323194
4.199469
5.494609
5.927368
2.975469
1.057350
-0.814341
0.573062
-1.674863
-2.569775
-1.632681
2.031414
0.659160
1.351270
2.703390
2.500248
2.958671
3.365483
-1.139660
-0.233472
-2.077896
-3.076286
-3.316536
-2.220745
4.011390
3.405020
3.832311
4.630925
5.058317
3.206688
3.445701
3.668247
3.486176
3.519015
3.860440
4.227852
5.892909
6.589694
5.210112
4.571427
5.730029
6.702631
-2.826720
-5.265843
-3.706515
-5.434162
-4.175646
-6.894859
-7.214369
-8.503144
-8.367171
-6.960642
-5.657983
-4.452328
-5.788664
-4.545226
-7.069996
-8.403825
-8.457359
-7.115933
-9.789850
-9.847778
-11.212033
-11.207929
-9.822894
-10.117601
-11.348232
-9.044164
-6.592884
-8.228175
-10.579409
-11.646651
-12.647386
-12.826611
-14.079336
-13.989497
-12.599867
-11.253295
-9.848931
-12.654541
-14.027925
-14.171988
-12.715753
6.163118
4.828870
4.924730
4.000337
4.054014
3.530457
3.500304
3.972186
3.402365
3.208717
3.714616
4.701567
3.377333
3.229629
3.057657
2.942889
2.652017
2.840759
2.559516
2.338406
1.985425
2.200546
2.900757
2.262722
1.870920
1.460383
1.418513
0.964767
1.017983
1.580499
2.479246
3.292223
1.759717
1.116178
1.240958
1.960856
4.207467
2.753782
3.617346
5.204916
5.834749
1.759717
2.479246
1.960856
1.240958
2.200546
1.116178
1.580499
2.900757
2.559516
3.208717
3.714616
3.292223
0.651867
0.000000
0.589480
1.365389
2.753782
2.138292
0.708113
0.000000
0.000000
0.533712
1.017983
0.000000
0.495885
1.460383
1.985425
4.701567
3.972186
4.924730
4.207467
5.834749
5.204916
3.617346
3.402365
4.054014
2.840759
2.338406
3.057657
3.500304
4.828870
4.000337
4.571427
5.730029
6.163118
2.964606
4.537687
3.833500
2.266059
1.466028
6.240691
5.492533
4.730826
6.460612
5.642797
3.953234
3.098685
0.749936
0.000000
1.533040
2.340320
0.774823
0.000000
0.000000
0.482595
0.964767
1.418513
1.870920
2.262722
2.652017
2.942889
3.229629
3.530457
3.377333
3.519015
3.860440
4.227852
3.668247
3.832311
4.630925
5.210112
3.486176
3.445701
3.405020
3.206688
2.958671
3.365483
4.011390
5.892909
6.702631
5.058317
4.199469
5.494609
6.589694
0.000000
1.565824
0.783000
3.162614
2.364447
4.819529
3.991346
1.565824
3.162614
2.340320
0.774823
0.000000
6.559312
5.689670
4.819529
6.559312
5.642797
3.953234
3.098685
4.730826
3.833500
2.266059
1.533040
6.460612
5.492533
4.537687
6.240691
2.964606
0.749936
0.000000
1.466028
2.138292
0.708113
0.000000
-11.226310
-12.409196
-11.307893
-10.225715
-12.267372
-10.040475
-10.980353
-13.538707
-13.359726
-14.702938
-14.811827
-13.601234
-9.253248
-8.300841
-9.154574
-10.225715
-12.409196
-11.226310
-9.154574
-8.300841
-8.092290
-8.838842
-9.650311
-7.616114
-8.228175
-10.579409
-11.996402
-16.097809
-16.046333
-17.402172
-14.811827
-17.402172
-16.046333
-13.538707
-15.902989
-17.304865
-14.506924
-13.097396
-15.702884
-17.133174
-12.267372
-14.702938
-13.359726
-10.980353
-10.040475
-17.304865
-15.902989
-14.506924
-17.133174
-15.702884
-13.097396
-11.996402
-8.838842
-8.092290
-9.650311
-7.616114
-6.592884
-7.214369
-9.044164
-10.117601
-11.646651
-8.503144
-5.265843
-6.894859
-9.847778
-11.348232
-12.826611
-14.273721
-15.505148
-16.934032
-14.079336
-12.647386
-15.377256
-16.771229
-11.212033
-8.367171
-9.789850
-12.599867
-13.989497
-5.434162
-6.960642
-3.706515
-2.826720
-1.674863
-2.569775
-4.175646
-8.403825
-5.657983
-7.069996
-9.822894
-11.207929
-15.370631
-16.705325
-14.027925
-12.654541
-15.531054
-16.792645
-14.273721
-16.934032
-15.505148
-16.771229
-15.377256
-16.705325
-15.370631
-16.792645
-15.531054
0.482595
0.000000
0.495885
0.000000
0.533712
0.000000
0.589480
0.000000
0.651867
1.365389
0.000000
-17.212604
-14.171988
-15.866780
-11.253295
-12.715753
-8.457359
-9.848931
-5.788664
-7.115933
-4.452328
-3.076286
-3.316536
-4.545226
-1.632681
-0.814341
-0.110357
-0.809705
-2.077896
0.573062
1.057350
1.477315
2.975469
3.100600
1.837442
0.496794
-1.139660
-2.220745
-0.055179
1.042053
0.659160
-0.233472
1.351270
1.548453
2.031414
2.152641
2.437380
3.198866
3.270627
2.703390
3.323194
2.500248
4.730824
4.565795
4.387204
5.927368
-17.212604
-15.866780
