# vtk DataFile Version 3.1
Diffusion Equation
ASCII
DATASET POLYDATA
POINTS 864 float
0.000000 0.000000 0.000000
4.000000 0.000000 0.000000
0.000000 4.000000 0.000000
4.000000 4.000000 0.000000
1.000000 1.000000 0.000000
3.000000 1.000000 0.000000
1.000000 3.000000 0.000000
3.000000 3.000000 0.000000
2.000000 0.000000 0.000000
4.000000 2.000000 0.000000
2.000000 4.000000 0.000000
0.000000 2.000000 0.000000
1.000000 2.000000 0.000000
3.000000 0.000000 0.000000
2.000000 3.000000 0.000000
0.000000 1.000000 0.000000
1.000000 0.000000 0.000000
3.000000 4.000000 0.000000
4.000000 3.000000 0.000000
2.000000 1.000000 0.000000
1.000000 4.000000 0.000000
3.000000 2.000000 0.000000
4.000000 1.000000 0.000000
0.000000 3.000000 0.000000
0.500000 2.500000 0.000000
0.500000 1.500000 0.000000
3.500000 0.500000 0.000000
2.500000 0.500000 0.000000
2.500000 3.500000 0.000000
1.500000 3.500000 0.000000
0.500000 0.500000 0.000000
1.500000 0.500000 0.000000
3.500000 3.500000 0.000000
3.500000 2.500000 0.000000
0.500000 3.500000 0.000000
3.500000 1.500000 0.000000
0.500000 2.000000 0.000000
1.000000 2.500000 0.000000
0.500000 3.000000 0.000000
0.000000 2.500000 0.000000
1.000000 1.500000 0.000000
0.000000 1.500000 0.000000
0.500000 1.000000 0.000000
3.000000 0.500000 0.000000
3.500000 0.000000 0.000000
4.000000 0.500000 0.000000
3.500000 1.000000 0.000000
2.500000 0.000000 0.000000
2.500000 1.000000 0.000000
2.000000 0.500000 0.000000
2.000000 3.500000 0.000000
2.500000 3.000000 0.000000
3.000000 3.500000 0.000000
2.500000 4.000000 0.000000
1.500000 3.000000 0.000000
1.500000 4.000000 0.000000
1.000000 3.500000 0.000000
0.000000 0.500000 0.000000
0.500000 0.000000 0.000000
1.000000 0.500000 0.000000
1.500000 0.000000 0.000000
1.500000 1.000000 0.000000
3.500000 4.000000 0.000000
3.500000 3.000000 0.000000
4.000000 3.500000 0.000000
4.000000 2.500000 0.000000
3.000000 2.500000 0.000000
3.500000 2.000000 0.000000
0.500000 4.000000 0.000000
0.000000 3.500000 0.000000
3.000000 1.500000 0.000000
4.000000 1.500000 0.000000
0.750000 2.250000 0.000000
0.250000 2.250000 0.000000
0.250000 1.750000 0.000000
0.750000 1.750000 0.000000
0.750000 2.750000 0.000000
0.250000 2.750000 0.000000
0.750000 3.250000 0.000000
0.250000 3.250000 0.000000
0.750000 1.250000 0.000000
0.250000 1.250000 0.000000
0.250000 0.750000 0.000000
0.750000 0.750000 0.000000
3.250000 0.250000 0.000000
3.250000 0.750000 0.000000
2.750000 0.750000 0.000000
2.750000 0.250000 0.000000
3.750000 0.250000 0.000000
3.750000 0.750000 0.000000
3.750000 1.250000 0.000000
3.250000 1.250000 0.000000
2.250000 0.250000 0.000000
2.250000 0.750000 0.000000
1.750000 0.750000 0.000000
1.750000 0.250000 0.000000
2.250000 3.250000 0.000000
2.250000 3.750000 0.000000
1.750000 3.750000 0.000000
1.750000 3.250000 0.000000
2.750000 3.250000 0.000000
2.750000 3.750000 0.000000
3.250000 3.250000 0.000000
3.250000 3.750000 0.000000
1.250000 3.250000 0.000000
1.250000 3.750000 0.000000
0.750000 3.750000 0.000000
0.250000 0.250000 0.000000
0.750000 0.250000 0.000000
1.250000 0.250000 0.000000
1.250000 0.750000 0.000000
3.750000 3.750000 0.000000
3.750000 3.250000 0.000000
3.250000 2.750000 0.000000
3.750000 2.750000 0.000000
3.750000 2.250000 0.000000
3.250000 2.250000 0.000000
3.250000 1.750000 0.000000
3.750000 1.750000 0.000000
0.250000 3.750000 0.000000
0.500000 2.250000 0.000000
0.750000 2.000000 0.000000
1.000000 2.250000 0.000000
0.750000 2.500000 0.000000
0.250000 2.000000 0.000000
0.250000 2.500000 0.000000
0.000000 2.250000 0.000000
0.500000 1.750000 0.000000
0.000000 1.750000 0.000000
0.250000 1.500000 0.000000
0.750000 1.500000 0.000000
1.000000 1.750000 0.000000
1.000000 2.750000 0.000000
0.750000 3.000000 0.000000
0.500000 2.750000 0.000000
0.250000 3.000000 0.000000
0.000000 2.750000 0.000000
0.500000 3.250000 0.000000
1.000000 3.250000 0.000000
0.750000 3.500000 0.000000
0.250000 3.500000 0.000000
0.000000 3.250000 0.000000
1.000000 1.250000 0.000000
0.500000 1.250000 0.000000
0.750000 1.000000 0.000000
0.000000 1.250000 0.000000
0.250000 1.000000 0.000000
0.500000 0.750000 0.000000
0.000000 0.750000 0.000000
0.250000 0.500000 0.000000
0.750000 0.500000 0.000000
1.000000 0.750000 0.000000
3.250000 0.500000 0.000000
3.000000 0.250000 0.000000
3.250000 0.000000 0.000000
3.500000 0.250000 0.000000
3.000000 0.750000 0.000000
3.500000 0.750000 0.000000
3.250000 1.000000 0.000000
2.750000 0.500000 0.000000
2.750000 1.000000 0.000000
2.500000 0.750000 0.000000
2.500000 0.250000 0.000000
2.750000 0.000000 0.000000
3.750000 0.000000 0.000000
4.000000 0.250000 0.000000
3.750000 0.500000 0.000000
4.000000 0.750000 0.000000
3.750000 1.000000 0.000000
3.500000 1.250000 0.000000
4.000000 1.250000 0.000000
3.750000 1.500000 0.000000
3.250000 1.500000 0.000000
3.000000 1.250000 0.000000
2.250000 0.000000 0.000000
2.250000 0.500000 0.000000
2.000000 0.250000 0.000000
2.250000 1.000000 0.000000
2.000000 0.750000 0.000000
1.750000 0.500000 0.000000
1.750000 1.000000 0.000000
1.500000 0.750000 0.000000
1.500000 0.250000 0.000000
1.750000 0.000000 0.000000
2.250000 3.500000 0.000000
2.000000 3.250000 0.000000
2.250000 3.000000 0.000000
2.500000 3.250000 0.000000
2.000000 3.750000 0.000000
2.500000 3.750000 0.000000
2.250000 4.000000 0.000000
1.750000 3.500000 0.000000
1.750000 4.000000 0.000000
1.500000 3.750000 0.000000
1.500000 3.250000 0.000000
1.750000 3.000000 0.000000
2.750000 3.000000 0.000000
3.000000 3.250000 0.000000
2.750000 3.500000 0.000000
3.000000 3.750000 0.000000
2.750000 4.000000 0.000000
3.250000 3.500000 0.000000
3.250000 3.000000 0.000000
3.500000 3.250000 0.000000
3.500000 3.750000 0.000000
3.250000 4.000000 0.000000
1.250000 3.000000 0.000000
1.250000 3.500000 0.000000
1.250000 4.000000 0.000000
1.000000 3.750000 0.000000
0.750000 4.000000 0.000000
0.500000 3.750000 0.000000
0.000000 0.250000 0.000000
0.250000 0.000000 0.000000
0.500000 0.250000 0.000000
0.750000 0.000000 0.000000
1.000000 0.250000 0.000000
1.250000 0.500000 0.000000
1.250000 0.000000 0.000000
1.250000 1.000000 0.000000
3.750000 4.000000 0.000000
3.750000 3.500000 0.000000
4.000000 3.750000 0.000000
3.750000 3.000000 0.000000
4.000000 3.250000 0.000000
3.500000 2.750000 0.000000
3.000000 2.750000 0.000000
3.250000 2.500000 0.000000
3.750000 2.500000 0.000000
4.000000 2.750000 0.000000
4.000000 2.250000 0.000000
3.500000 2.250000 0.000000
3.750000 2.000000 0.000000
3.000000 2.250000 0.000000
3.250000 2.000000 0.000000
3.500000 1.750000 0.000000
3.000000 1.750000 0.000000
4.000000 1.750000 0.000000
0.250000 4.000000 0.000000
0.000000 3.750000 0.000000
0.625000 2.125000 0.000000
0.625000 2.375000 0.000000
0.375000 2.375000 0.000000
0.375000 2.125000 0.000000
0.875000 2.125000 0.000000
0.625000 1.875000 0.000000
0.875000 1.875000 0.000000
0.875000 2.375000 0.000000
0.875000 2.625000 0.000000
0.625000 2.625000 0.000000
0.125000 2.125000 0.000000
0.125000 1.875000 0.000000
0.375000 1.875000 0.000000
0.125000 2.375000 0.000000
0.375000 2.625000 0.000000
0.125000 2.625000 0.000000
0.375000 1.625000 0.000000
0.625000 1.625000 0.000000
0.125000 1.625000 0.000000
0.125000 1.375000 0.000000
0.375000 1.375000 0.000000
0.875000 1.625000 0.000000
0.625000 1.375000 0.000000
0.875000 1.375000 0.000000
0.875000 2.875000 0.000000
0.625000 2.875000 0.000000
0.875000 3.125000 0.000000
0.625000 3.125000 0.000000
0.375000 2.875000 0.000000
0.125000 2.875000 0.000000
0.375000 3.125000 0.000000
0.125000 3.125000 0.000000
0.625000 3.375000 0.000000
0.375000 3.375000 0.000000
0.875000 3.375000 0.000000
1.125000 3.125000 0.000000
1.125000 3.375000 0.000000
0.875000 3.625000 0.000000
0.625000 3.625000 0.000000
0.125000 3.375000 0.000000
0.375000 3.625000 0.000000
0.125000 3.625000 0.000000
0.875000 1.125000 0.000000
0.625000 1.125000 0.000000
0.375000 1.125000 0.000000
0.625000 0.875000 0.000000
0.875000 0.875000 0.000000
0.125000 1.125000 0.000000
0.125000 0.875000 0.000000
0.375000 0.875000 0.000000
0.375000 0.625000 0.000000
0.625000 0.625000 0.000000
0.125000 0.625000 0.000000
0.125000 0.375000 0.000000
0.375000 0.375000 0.000000
0.875000 0.625000 0.000000
0.625000 0.375000 0.000000
0.875000 0.375000 0.000000
1.125000 0.625000 0.000000
1.125000 0.875000 0.000000
3.125000 0.375000 0.000000
3.375000 0.375000 0.000000
3.375000 0.625000 0.000000
3.125000 0.625000 0.000000
3.125000 0.125000 0.000000
2.875000 0.375000 0.000000
2.875000 0.125000 0.000000
3.375000 0.125000 0.000000
3.625000 0.125000 0.000000
3.625000 0.375000 0.000000
3.125000 0.875000 0.000000
2.875000 0.875000 0.000000
2.875000 0.625000 0.000000
3.375000 0.875000 0.000000
3.625000 0.625000 0.000000
3.625000 0.875000 0.000000
3.375000 1.125000 0.000000
3.125000 1.125000 0.000000
2.625000 0.625000 0.000000
2.625000 0.375000 0.000000
2.625000 0.875000 0.000000
2.375000 0.875000 0.000000
2.375000 0.625000 0.000000
2.625000 0.125000 0.000000
2.375000 0.375000 0.000000
2.375000 0.125000 0.000000
3.875000 0.125000 0.000000
3.875000 0.375000 0.000000
3.875000 0.625000 0.000000
3.875000 0.875000 0.000000
3.875000 1.125000 0.000000
3.625000 1.125000 0.000000
3.625000 1.375000 0.000000
3.375000 1.375000 0.000000
3.875000 1.375000 0.000000
3.875000 1.625000 0.000000
3.625000 1.625000 0.000000
3.125000 1.375000 0.000000
3.375000 1.625000 0.000000
3.125000 1.625000 0.000000
2.125000 0.125000 0.000000
2.125000 0.375000 0.000000
2.125000 0.625000 0.000000
1.875000 0.375000 0.000000
1.875000 0.125000 0.000000
2.125000 0.875000 0.000000
1.875000 0.875000 0.000000
1.875000 0.625000 0.000000
1.625000 0.625000 0.000000
1.625000 0.375000 0.000000
1.625000 0.875000 0.000000
1.375000 0.875000 0.000000
1.375000 0.625000 0.000000
1.625000 0.125000 0.000000
1.375000 0.375000 0.000000
1.375000 0.125000 0.000000
2.125000 3.375000 0.000000
2.375000 3.375000 0.000000
2.375000 3.625000 0.000000
2.125000 3.625000 0.000000
2.125000 3.125000 0.000000
1.875000 3.375000 0.000000
1.875000 3.125000 0.000000
2.375000 3.125000 0.000000
2.625000 3.125000 0.000000
2.625000 3.375000 0.000000
2.125000 3.875000 0.000000
[...]
POINT_DATA 864
SCALARS Temperature float
LOOKUP_TABLE default
0.000000
0.000000
-27.426903
-27.426903
3.384605
3.384605
-14.573628
-14.573628
0.000000
-4.053476
-27.718817
-4.053476
-0.633259
0.000000
-18.576456
0.348902
0.000000
-26.753825
-14.400460
5.898142
-26.753825
-0.633259
0.348902
-14.400460
-8.000784
-0.232514
0.809758
2.439872
-22.277751
-22.277751
0.809758
2.439872
-20.619857
-8.000784
-20.619857
-0.232514
-3.233776
-5.672337
-14.244063
-8.636901
2.370768
-1.054995
1.007091
1.654044
0.000000
0.494677
1.007091
0.000000
5.467853
2.701161
-22.705318
-17.951812
-21.230662
-27.413979
-17.951812
-27.413979
-21.230662
0.494677
0.000000
1.654044
0.000000
5.467853
-26.375695
-14.244063
-20.576468
-8.636901
-5.672337
-3.233776
-26.375695
-20.576468
2.370768
-1.054995
-4.390015
-5.974866
-2.140800
-0.434838
-10.394087
-11.313375
-17.679586
-17.473856
1.616472
0.022842
0.666114
1.661297
0.612442
1.661297
3.304921
1.028097
0.324629
0.666114
0.022842
1.616472
1.285720
4.120639
4.120639
1.285720
-20.372361
-25.034846
-25.034846
-20.372361
-19.221483
-24.423908
-17.679586
-23.734773
-19.221483
-24.423908
-23.734773
0.324629
0.612442
1.028097
3.304921
-23.610295
-17.473856
-10.394087
-11.313375
-5.974866
-4.390015
-0.434838
-2.140800
-23.610295
-5.400560
-2.172309
-2.875345
-7.115405
-3.851247
-8.482983
-6.160933
-1.510504
-2.348015
-0.851887
0.830698
1.110621
-9.214535
-14.153346
-10.993515
-14.356178
-11.416424
-17.500216
-18.251908
-20.819815
-20.570258
-17.478348
3.136267
0.602387
1.891450
-0.165862
0.510253
1.036804
0.543735
0.574127
1.186630
2.503147
1.186630
0.823514
0.000000
0.437211
2.503147
1.036804
1.891450
2.103984
4.810406
3.833752
1.187977
0.000000
0.000000
0.286148
0.574127
0.543735
0.510253
0.602387
-0.165862
-0.851887
0.830698
3.136267
0.000000
2.636984
1.318203
5.796674
4.211107
2.636984
5.796674
3.833752
1.187977
0.000000
-22.596701
-20.507292
-18.428235
-19.954525
-25.122481
-24.786093
-27.638745
-22.596701
-27.638745
-24.786093
-19.954525
-18.428235
-16.988194
-18.251908
-21.783840
-24.037241
-27.092601
-20.819815
-14.153346
-17.500216
-23.586811
-26.489021
-16.988194
-21.783840
-27.092601
-24.037241
-26.489021
-23.586811
0.286148
0.000000
0.437211
0.000000
0.823514
2.103984
0.000000
4.810406
-26.509409
-20.570258
-23.719892
-14.356178
-17.478348
-10.993515
-9.214535
-7.115405
-8.482983
-11.416424
-6.160933
-5.400560
-3.851247
-2.875345
-2.172309
-1.510504
1.110621
-2.348015
-26.509409
-23.719892
-3.799149
-6.226116
-6.964002
-4.614742
-2.518397
-1.837908
-0.532780
-5.014987
-8.100626
-9.122495
-5.009675
-3.098057
-2.683872
-7.313279
-9.696265
-9.961795
-1.183719
-0.336845
-1.598612
-0.512081
-0.114416
0.968971
0.704309
1.987574
-11.963238
-12.440203
-16.170240
-15.901186
-12.726409
-12.871668
-15.895417
-15.928162
-19.154922
-19.041579
-19.489025
-17.373481
-20.126536
-22.453687
-22.189329
-19.025965
-22.095268
-22.118999
2.495484
1.280879
0.536409
1.399214
2.338251
0.179498
0.517535
0.805450
0.771462
1.172462
0.569662
0.419797
0.536181
1.748739
0.760988
1.068755
2.395019
3.534362
1.068755
0.760988
1.172462
1.748739
0.358924
1.403059
0.463031
0.262279
0.190371
0.536181
2.338251
3.534362
2.395019
1.399214
0.771462
0.805450
1.280879
2.495484
2.921762
1.690558
4.352677
4.803639
3.257744
0.554173
1.887784
0.618489
0.152647
0.419797
0.569662
0.517535
0.179498
0.536409
-0.114416
0.704309
-0.512081
-1.598612
-1.183719
1.987574
-0.336845
0.968971
0.650984
1.985466
3.417184
1.985466
0.650984
5.005974
5.005974
3.417184
3.257744
1.887784
4.803639
4.352677
2.921762
0.618489
1.690558
0.554173
-21.545303
-21.300730
-23.674449
-23.865133
-19.470226
-21.545303
-19.470226
-19.175077
-18.527832
-20.812347
-26.379128
-26.379128
-23.865133
-26.218904
-23.318942
-25.929567
-23.674449
-21.300730
-26.218904
-25.929567
-23.318942
-19.175077
-20.812347
-18.527832
-17.373481
-20.126536
-16.170240
-19.489025
-22.868845
-25.576743
-22.453687
-25.253114
-19.154922
-22.189329
-15.901186
-11.963238
-12.440203
-15.895417
-19.041579
-25.046587
-22.095268
-25.019887
-22.868845
-25.576743
-25.253114
-25.046587
-25.019887
0.152647
0.190371
0.262279
0.358924
0.463031
1.403059
-25.234943
-22.118999
-19.025965
-15.928162
-12.726409
-12.871668
-9.122495
-9.696265
-8.100626
-5.014987
-6.226116
-9.961795
-6.964002
-7.313279
-5.009675
-4.614742
-3.799149
-2.683872
-3.098057
-2.518397
-0.532780
-1.837908
-25.234943
-4.953945
-4.262042
-2.760772
-3.219953
-6.647849
-5.686615
-7.616183
-5.738527
-8.285992
-7.183766
-4.862618
-3.595896
-1.464173
-1.689906
-3.699671
-1.244446
-2.316502
-1.030012
0.278005
0.299392
-4.197969
-6.475822
-8.683136
-7.325584
-9.918103
-10.737557
-9.453247
-4.003100
-6.114673
-5.058426
-2.943481
-3.149388
-2.296359
-1.879712
-8.598723
-7.356082
-9.863587
-11.182373
-11.390797
-9.994211
-0.815885
-1.443744
-0.595624
0.241422
0.257007
-1.650047
-1.004384
-0.363877
-0.561246
-0.118893
0.261813
0.239950
1.539513
1.801272
1.284772
1.051020
2.308957
2.816983
-11.482212
-14.215093
-12.237699
-14.184680
-12.601028
-15.976069
-16.592293
-17.897669
-17.558957
-15.885201
-14.305497
-12.816889
-14.389098
-12.890036
-15.913384
-17.477747
-17.476563
-15.933764
-19.079123
-19.285816
-20.695959
-20.581720
-19.027894
-19.774511
-20.998276
-18.743330
-16.130746
-18.027725
-20.486029
-21.502449
-22.299379
-22.647587
-23.869682
-23.639354
-22.122795
-20.572901
-19.026666
-22.098684
-23.578044
-23.671011
-22.133568
3.324395
1.821078
2.527453
0.856699
1.394665
0.312258
0.714807
1.822558
1.062145
1.317449
2.062862
2.940095
0.135516
0.389054
0.624844
0.481932
0.574266
0.819962
0.947625
0.645345
0.672885
0.982462
1.442285
0.544438
0.514569
0.463686
0.405107
0.295807
0.372100
0.636037
1.414544
2.075240
0.907206
0.518231
0.715910
1.237345
2.934365
1.889029
2.681424
4.000594
4.262366
0.907206
1.414544
1.237345
0.715910
0.982462
0.518231
0.636037
1.442285
0.947625
1.317449
2.062862
2.075240
0.411368
0.000000
0.308412
0.929426
1.889029
1.556426
0.511326
0.000000
0.000000
0.222466
0.372100
0.000000
0.166912
0.463686
0.672885
2.940095
1.822558
2.527453
2.934365
4.262366
4.000594
2.681424
1.062145
1.394665
0.819962
0.645345
0.624844
0.714807
1.821078
0.856699
1.051020
2.308957
3.324395
2.289046
3.603280
3.113284
1.801549
1.115202
5.192334
4.614482
4.003945
5.664382
4.931733
3.358139
2.555597
0.590160
0.000000
1.244993
1.948989
0.638799
0.000000
0.000000
0.147861
0.295807
0.405107
0.514569
0.544438
0.574266
0.481932
0.389054
0.312258
0.135516
-0.118893
0.261813
0.239950
-0.363877
-0.595624
0.241422
1.284772
-0.561246
-1.004384
-1.443744
-1.650047
-2.296359
-1.879712
-0.815885
1.539513
2.816983
0.257007
-1.030012
0.278005
1.801272
0.000000
1.310094
0.655043
2.685200
1.997575
4.188727
3.436660
1.310094
2.685200
1.948989
0.638799
0.000000
5.873121
5.030301
4.188727
5.873121
4.931733
3.358139
2.555597
4.003945
3.113284
1.801549
1.244993
5.664382
4.614482
3.603280
5.192334
2.289046
0.590160
0.000000
1.115202
1.556426
0.511326
0.000000
-21.453751
-22.678091
-21.575781
-20.473772
-22.462385
-20.200650
-21.086315
-23.792759
-23.514286
-24.928550
-25.100374
-23.889493
-19.506027
-18.539834
-19.361452
-20.473772
-22.678091
-21.453751
-19.361452
-18.539834
-18.236099
-18.902289
-19.629024
-17.552467
-18.027725
-20.486029
-22.048197
-26.399865
-26.317883
-27.698574
-25.100374
-27.698574
-26.317883
-23.792759
-26.087113
-27.542253
-24.614605
-23.098861
-25.755682
-27.261049
-22.462385
-24.928550
-23.514286
-21.086315
-20.200650
-27.542253
-26.087113
-24.614605
-27.261049
-25.755682
-23.098861
-22.048197
-18.902289
-18.236099
-19.629024
-17.552467
-16.130746
-16.592293
-18.743330
-19.774511
-21.502449
-17.897669
-14.215093
-15.976069
-19.285816
-20.998276
-22.647587
-24.226662
-25.405208
-26.919598
-23.869682
-22.299379
-25.130852
-26.606889
-20.695959
-17.558957
-19.079123
-22.122795
-23.639354
-14.184680
-15.885201
-12.237699
-11.482212
-9.918103
-10.737557
-12.601028
-17.477747
-14.305497
-15.913384
-19.027894
-20.581720
-25.007224
-26.409094
-23.578044
-22.098684
-25.093612
-26.400841
-24.226662
-26.919598
-25.405208
-26.606889
-25.130852
-26.409094
-25.007224
-26.400841
-25.093612
0.147861
0.000000
0.166912
0.000000
0.222466
0.000000
0.308412
0.000000
0.411368
0.929426
0.000000
-26.771171
-23.671011
-25.404149
-20.572901
-22.133568
-17.476563
-19.026666
-14.389098
-15.933764
-12.816889
-11.182373
-11.390797
-12.890036
-9.453247
-8.683136
-7.616183
-8.285992
-9.863587
-7.325584
-6.475822
-5.686615
-4.197969
-3.699671
-4.953945
-6.647849
-8.598723
-9.994211
-7.183766
-5.738527
-6.114673
-7.356082
-5.058426
-4.862618
-4.003100
-4.262042
-3.595896
-3.219953
-2.760772
-2.943481
-2.316502
-3.149388
-1.689906
-1.464173
-1.244446
0.299392
-26.771171
-25.404149
