# vtk DataFile Version 3.1
Diffusion Equation
ASCII
DATASET POLYDATA
POINTS 864 float
0.000000 0.000000 0.000000
4.000000 0.000000 0.000000
0.000000 4.000000 0.000000
4.000000 4.000000 0.000000
1.000000 1.000000 0.000000
3.000000 1.000000 0.000000
1.000000 3.000000 0.000000
3.000000 3.000000 0.000000
2.000000 0.000000 0.000000
4.000000 2.000000 0.000000
2.000000 4.000000 0.000000
0.000000 2.000000 0.000000
1.000000 2.000000 0.000000
3.000000 0.000000 0.000000
2.000000 3.000000 0.000000
0.000000 1.000000 0.000000
1.000000 0.000000 0.000000
3.000000 4.000000 0.000000
4.000000 3.000000 0.000000
2.000000 1.000000 0.000000
1.000000 4.000000 0.000000
3.000000 2.000000 0.000000
4.000000 1.000000 0.000000
0.000000 3.000000 0.000000
0.500000 2.500000 0.000000
0.500000 1.500000 0.000000
3.500000 0.500000 0.000000
2.500000 0.500000 0.000000
2.500000 3.500000 0.000000
1.500000 3.500000 0.000000
0.500000 0.500000 0.000000
1.500000 0.500000 0.000000
3.500000 3.500000 0.000000
3.500000 2.500000 0.000000
0.500000 3.500000 0.000000
3.500000 1.500000 0.000000
0.500000 2.000000 0.000000
1.000000 2.500000 0.000000
0.500000 3.000000 0.000000
0.000000 2.500000 0.000000
1.000000 1.500000 0.000000
0.000000 1.500000 0.000000
0.500000 1.000000 0.000000
3.000000 0.500000 0.000000
3.500000 0.000000 0.000000
4.000000 0.500000 0.000000
3.500000 1.000000 0.000000
2.500000 0.000000 0.000000
2.500000 1.000000 0.000000
2.000000 0.500000 0.000000
2.000000 3.500000 0.000000
2.500000 3.000000 0.000000
3.000000 3.500000 0.000000
2.500000 4.000000 0.000000
1.500000 3.000000 0.000000
1.500000 4.000000 0.000000
1.000000 3.500000 0.000000
0.000000 0.500000 0.000000
0.500000 0.000000 0.000000
1.000000 0.500000 0.000000
1.500000 0.000000 0.000000
1.500000 1.000000 0.000000
3.500000 4.000000 0.000000
3.500000 3.000000 0.000000
4.000000 3.500000 0.000000
4.000000 2.500000 0.000000
3.000000 2.500000 0.000000
3.500000 2.000000 0.000000
0.500000 4.000000 0.000000
0.000000 3.500000 0.000000
3.000000 1.500000 0.000000
4.000000 1.500000 0.000000
0.750000 2.250000 0.000000
0.250000 2.250000 0.000000
0.250000 1.750000 0.000000
0.750000 1.750000 0.000000
0.750000 2.750000 0.000000
0.250000 2.750000 0.000000
0.750000 3.250000 0.000000
0.250000 3.250000 0.000000
0.750000 1.250000 0.000000
0.250000 1.250000 0.000000
0.250000 0.750000 0.000000
0.750000 0.750000 0.000000
3.250000 0.250000 0.000000
3.250000 0.750000 0.000000
2.750000 0.750000 0.000000
2.750000 0.250000 0.000000
3.750000 0.250000 0.000000
3.750000 0.750000 0.000000
3.750000 1.250000 0.000000
3.250000 1.250000 0.000000
2.250000 0.250000 0.000000
2.250000 0.750000 0.000000
1.750000 0.750000 0.000000
1.750000 0.250000 0.000000
2.250000 3.250000 0.000000
2.250000 3.750000 0.000000
1.750000 3.750000 0.000000
1.750000 3.250000 0.000000
2.750000 3.250000 0.000000
2.750000 3.750000 0.000000
3.250000 3.250000 0.000000
3.250000 3.750000 0.000000
1.250000 3.250000 0.000000
1.250000 3.750000 0.000000
0.750000 3.750000 0.000000
0.250000 0.250000 0.000000
0.750000 0.250000 0.000000
1.250000 0.250000 0.000000
1.250000 0.750000 0.000000
3.750000 3.750000 0.000000
3.750000 3.250000 0.000000
3.250000 2.750000 0.000000
3.750000 2.750000 0.000000
3.750000 2.250000 0.000000
3.250000 2.250000 0.000000
3.250000 1.750000 0.000000
3.750000 1.750000 0.000000
0.250000 3.750000 0.000000
0.500000 2.250000 0.000000
0.750000 2.000000 0.000000
1.000000 2.250000 0.000000
0.750000 2.500000 0.000000
0.250000 2.000000 0.000000
0.250000 2.500000 0.000000
0.000000 2.250000 0.000000
0.500000 1.750000 0.000000
0.000000 1.750000 0.000000
0.250000 1.500000 0.000000
0.750000 1.500000 0.000000
1.000000 1.750000 0.000000
1.000000 2.750000 0.000000
0.750000 3.000000 0.000000
0.500000 2.750000 0.000000
0.250000 3.000000 0.000000
0.000000 2.750000 0.000000
0.500000 3.250000 0.000000
1.000000 3.250000 0.000000
0.750000 3.500000 0.000000
0.250000 3.500000 0.000000
0.000000 3.250000 0.000000
1.000000 1.250000 0.000000
0.500000 1.250000 0.000000
0.750000 1.000000 0.000000
0.000000 1.250000 0.000000
0.250000 1.000000 0.000000
0.500000 0.750000 0.000000
0.000000 0.750000 0.000000
0.250000 0.500000 0.000000
0.750000 0.500000 0.000000
1.000000 0.750000 0.000000
3.250000 0.500000 0.000000
3.000000 0.250000 0.000000
3.250000 0.000000 0.000000
3.500000 0.250000 0.000000
3.000000 0.750000 0.000000
3.500000 0.750000 0.000000
3.250000 1.000000 0.000000
2.750000 0.500000 0.000000
2.750000 1.000000 0.000000
2.500000 0.750000 0.000000
2.500000 0.250000 0.000000
2.750000 0.000000 0.000000
3.750000 0.000000 0.000000
4.000000 0.250000 0.000000
3.750000 0.500000 0.000000
4.000000 0.750000 0.000000
3.750000 1.000000 0.000000
3.500000 1.250000 0.000000
4.000000 1.250000 0.000000
3.750000 1.500000 0.000000
3.250000 1.500000 0.000000
3.000000 1.250000 0.000000
2.250000 0.000000 0.000000
2.250000 0.500000 0.000000
2.000000 0.250000 0.000000
2.250000 1.000000 0.000000
2.000000 0.750000 0.000000
1.750000 0.500000 0.000000
1.750000 1.000000 0.000000
1.500000 0.750000 0.000000
1.500000 0.250000 0.000000
1.750000 0.000000 0.000000
2.250000 3.500000 0.000000
2.000000 3.250000 0.000000
2.250000 3.000000 0.000000
2.500000 3.250000 0.000000
2.000000 3.750000 0.000000
2.500000 3.750000 0.000000
2.250000 4.000000 0.000000
1.750000 3.500000 0.000000
1.750000 4.000000 0.000000
1.500000 3.750000 0.000000
1.500000 3.250000 0.000000
1.750000 3.000000 0.000000
2.750000 3.000000 0.000000
3.000000 3.250000 0.000000
2.750000 3.500000 0.000000
3.000000 3.750000 0.000000
2.750000 4.000000 0.000000
3.250000 3.500000 0.000000
3.250000 3.000000 0.000000
3.500000 3.250000 0.000000
3.500000 3.750000 0.000000
3.250000 4.000000 0.000000
1.250000 3.000000 0.000000
1.250000 3.500000 0.000000
1.250000 4.000000 0.000000
1.000000 3.750000 0.000000
0.750000 4.000000 0.000000
0.500000 3.750000 0.000000
0.000000 0.250000 0.000000
0.250000 0.000000 0.000000
0.500000 0.250000 0.000000
0.750000 0.000000 0.000000
1.000000 0.250000 0.000000
1.250000 0.500000 0.000000
1.250000 0.000000 0.000000
1.250000 1.000000 0.000000
3.750000 4.000000 0.000000
3.750000 3.500000 0.000000
4.000000 3.750000 0.000000
3.750000 3.000000 0.000000
4.000000 3.250000 0.000000
3.500000 2.750000 0.000000
3.000000 2.750000 0.000000
3.250000 2.500000 0.000000
3.750000 2.500000 0.000000
4.000000 2.750000 0.000000
4.000000 2.250000 0.000000
3.500000 2.250000 0.000000
3.750000 2.000000 0.000000
3.000000 2.250000 0.000000
3.250000 2.000000 0.000000
3.500000 1.750000 0.000000
3.000000 1.750000 0.000000
4.000000 1.750000 0.000000
0.250000 4.000000 0.000000
0.000000 3.750000 0.000000
0.625000 2.125000 0.000000
0.625000 2.375000 0.000000
0.375000 2.375000 0.000000
0.375000 2.125000 0.000000
0.875000 2.125000 0.000000
0.625000 1.875000 0.000000
0.875000 1.875000 0.000000
0.875000 2.375000 0.000000
0.875000 2.625000 0.000000
0.625000 2.625000 0.000000
0.125000 2.125000 0.000000
0.125000 1.875000 0.000000
0.375000 1.875000 0.000000
0.125000 2.375000 0.000000
0.375000 2.625000 0.000000
0.125000 2.625000 0.000000
0.375000 1.625000 0.000000
0.625000 1.625000 0.000000
0.125000 1.625000 0.000000
0.125000 1.375000 0.000000
0.375000 1.375000 0.000000
0.875000 1.625000 0.000000
0.625000 1.375000 0.000000
0.875000 1.375000 0.000000
0.875000 2.875000 0.000000
0.625000 2.875000 0.000000
0.875000 3.125000 0.000000
0.625000 3.125000 0.000000
0.375000 2.875000 0.000000
0.125000 2.875000 0.000000
0.375000 3.125000 0.000000
0.125000 3.125000 0.000000
0.625000 3.375000 0.000000
0.375000 3.375000 0.000000
0.875000 3.375000 0.000000
1.125000 3.125000 0.000000
1.125000 3.375000 0.000000
0.875000 3.625000 0.000000
0.625000 3.625000 0.000000
0.125000 3.375000 0.000000
0.375000 3.625000 0.000000
0.125000 3.625000 0.000000
0.875000 1.125000 0.000000
0.625000 1.125000 0.000000
0.375000 1.125000 0.000000
0.625000 0.875000 0.000000
0.875000 0.875000 0.000000
0.125000 1.125000 0.000000
0.125000 0.875000 0.000000
0.375000 0.875000 0.000000
0.375000 0.625000 0.000000
0.625000 0.625000 0.000000
0.125000 0.625000 0.000000
0.125000 0.375000 0.000000
0.375000 0.375000 0.000000
0.875000 0.625000 0.000000
0.625000 0.375000 0.000000
0.875000 0.375000 0.000000
1.125000 0.625000 0.000000
1.125000 0.875000 0.000000
3.125000 0.375000 0.000000
3.375000 0.375000 0.000000
3.375000 0.625000 0.000000
3.125000 0.625000 0.000000
3.125000 0.125000 0.000000
2.875000 0.375000 0.000000
2.875000 0.125000 0.000000
3.375000 0.125000 0.000000
3.625000 0.125000 0.000000
3.625000 0.375000 0.000000
3.125000 0.875000 0.000000
2.875000 0.875000 0.000000
2.875000 0.625000 0.000000
3.375000 0.875000 0.000000
3.625000 0.625000 0.000000
3.625000 0.875000 0.000000
3.375000 1.125000 0.000000
3.125000 1.125000 0.000000
2.625000 0.625000 0.000000
2.625000 0.375000 0.000000
2.625000 0.875000 0.000000
2.375000 0.875000 0.000000
2.375000 0.625000 0.000000
2.625000 0.125000 0.000000
2.375000 0.375000 0.000000
2.375000 0.125000 0.000000
3.875000 0.125000 0.000000
3.875000 0.375000 0.000000
3.875000 0.625000 0.000000
3.875000 0.875000 0.000000
3.875000 1.125000 0.000000
3.625000 1.125000 0.000000
3.625000 1.375000 0.000000
3.375000 1.375000 0.000000
3.875000 1.375000 0.000000
3.875000 1.625000 0.000000
3.625000 1.625000 0.000000
3.125000 1.375000 0.000000
3.375000 1.625000 0.000000
3.125000 1.625000 0.000000
2.125000 0.125000 0.000000
2.125000 0.375000 0.000000
2.125000 0.625000 0.000000
1.875000 0.375000 0.000000
1.875000 0.125000 0.000000
2.125000 0.875000 0.000000
1.875000 0.875000 0.000000
1.875000 0.625000 0.000000
1.625000 0.625000 0.000000
1.625000 0.375000 0.000000
1.625000 0.875000 0.000000
1.375000 0.875000 0.000000
1.375000 0.625000 0.000000
1.625000 0.125000 0.000000
1.375000 0.375000 0.000000
1.375000 0.125000 0.000000
2.125000 3.375000 0.000000
2.375000 3.375000 0.000000
2.375000 3.625000 0.000000
2.125000 3.625000 0.000000
2.125000 3.125000 0.000000
1.875000 3.375000 0.000000
1.875000 3.125000 0.000000
2.375000 3.125000 0.000000
2.625000 3.125000 0.000000
2.625000 3.375000 0.000000
2.125000 3.875000 0.000000
[...]
POINT_DATA 864
SCALARS Temperature float
LOOKUP_TABLE default
0.000000
0.000000
-27.455580
-27.455580
3.378169
3.378169
-14.601091
-14.601091
0.000000
-4.071693
-27.749689
-4.071693
-0.651459
0.000000
-18.607172
0.340274
0.000000
-26.783546
-14.426303
5.896091
-26.783546
-0.651459
0.340274
-14.426303
-8.023343
-0.245854
0.805897
2.438042
-22.308118
-22.308118
0.805897
2.438042
-20.648145
-8.023343
-20.648145
-0.245854
-3.251984
-5.695036
-14.270187
-8.659363
2.357619
-1.068465
0.998808
1.651104
0.000000
0.490545
0.998808
0.000000
5.465113
2.699731
-22.736115
-17.981958
-21.259913
-27.444513
-17.981958
-27.444513
-21.259913
0.490545
0.000000
1.651104
0.000000
5.465113
-26.404660
-14.270187
-20.604437
-8.659363
-5.695036
-3.251984
-26.404660
-20.604437
2.357619
-1.068465
-4.410506
-5.995299
-2.156668
-0.450617
-10.418772
-11.337708
-17.707453
-17.501016
1.605965
0.011871
0.659875
1.655871
0.610728
1.655871
3.301617
1.026906
0.322624
0.659875
0.011871
1.605965
1.284904
4.118610
4.118610
1.284904
-20.402973
-25.065603
-25.065603
-20.402973
-19.251025
-24.453989
-17.707453
-23.763926
-19.251025
-24.453989
-23.763926
0.322624
0.610728
1.026906
3.301617
-23.638871
-17.501016
-10.418772
-11.337708
-5.995299
-4.410506
-0.450617
-2.156668
-23.638871
-5.421020
-2.190511
-2.895851
-7.138055
-3.869461
-8.505471
-6.181356
-1.526331
-2.363898
-0.865322
0.817482
1.094864
-9.239389
-14.179885
-11.017986
-14.382089
-11.440710
-17.527623
-18.280527
-20.848508
-20.598306
-17.505429
3.125993
0.591595
1.883707
-0.176892
0.501706
1.030839
0.537413
0.570060
1.183142
2.498666
1.183142
0.822051
0.000000
0.435313
2.498666
1.030839
1.883707
2.101659
4.806585
3.831271
1.187016
0.000000
0.000000
0.284109
0.570060
0.537413
0.501706
0.591595
-0.176892
-0.865322
0.817482
3.125993
0.000000
2.635455
1.317435
5.794462
4.209220
2.635455
5.794462
3.831271
1.187016
0.000000
-22.627389
-20.538032
-18.458814
-19.984745
-25.153332
-24.816582
-27.669530
-22.627389
-27.669530
-24.816582
-19.984745
-18.458814
-17.017506
-18.280527
-21.813700
-24.066846
-27.122759
-20.848508
-14.179885
-17.527623
-23.615609
-26.518322
-17.017506
-21.813700
-27.122759
-24.066846
-26.518322
-23.615609
0.284109
0.000000
0.435313
0.000000
0.822051
2.101659
0.000000
4.806585
-26.538159
-20.598306
-23.748393
-14.382089
-17.505429
-11.017986
-9.239389
-7.138055
-8.505471
-11.440710
-6.181356
-5.421020
-3.869461
-2.895851
-2.190511
-1.526331
1.094864
-2.363898
-26.538159
-23.748393
-3.818507
-6.247675
-6.985505
-4.634088
-2.537764
-1.854927
-0.549779
-5.036593
-8.124370
-9.146107
-5.029014
-3.115118
-2.700917
-7.334749
-9.719748
-9.985207
-1.198350
-0.351399
-1.613289
-0.524319
-0.126562
0.954484
0.692332
1.975777
-11.989085
-12.465679
-16.197880
-15.928198
-12.751642
-12.896783
-15.922093
-15.954685
-19.183010
-19.069330
-19.517654
-17.402309
-20.155884
-22.482888
-22.218087
-19.053554
-22.123721
-22.147298
2.486646
1.271537
0.526752
1.392359
2.332213
0.169696
0.510095
0.798187
0.766425
1.167773
0.564468
0.416733
0.533221
1.744646
0.758245
1.066350
2.391759
3.529949
1.066350
0.758245
1.167773
1.744646
0.358128
1.401078
0.462367
0.261375
0.189394
0.533221
2.332213
3.529949
2.391759
1.392359
0.766425
0.798187
1.271537
2.486646
2.919278
1.688981
4.349586
4.801269
3.255776
0.553634
1.886499
0.618044
0.151635
0.416733
0.564468
0.510095
0.169696
0.526752
-0.126562
0.692332
-0.524319
-1.613289
-1.198350
1.975777
-0.351399
0.954484
0.650588
1.984329
3.415463
1.984329
0.650588
5.003926
5.003926
3.415463
3.255776
1.886499
4.801269
4.349586
2.919278
0.618044
1.688981
0.553634
-21.576040
-21.331230
-23.705053
-23.895935
-19.500914
-21.576040
-19.500914
-19.205493
-18.557663
-20.842373
-26.409973
-26.409973
-23.895935
-26.249573
-23.349170
-25.959910
-23.705053
-21.331230
-26.249573
-25.959910
-23.349170
-19.205493
-20.842373
-18.557663
-17.402309
-20.155884
-16.197880
-19.517654
-22.898572
-25.606662
-22.482888
-25.282585
-19.183010
-22.218087
-15.928198
-11.989085
-12.465679
-15.922093
-19.069330
-25.075667
-22.123721
-25.048685
-22.898572
-25.606662
-25.282585
-25.075667
-25.048685
0.151635
0.189394
0.261375
0.358128
0.462367
1.401078
-25.263595
-22.147298
-19.053554
-15.954685
-12.751642
-12.896783
-9.146107
-9.719748
-8.124370
-5.036593
-6.247675
-9.985207
-6.985505
-7.334749
-5.029014
-4.634088
-3.818507
-2.700917
-3.115118
-2.537764
-0.549779
-1.854927
-25.263595
-4.974418
-4.281391
-2.778974
-3.239313
-6.669376
-5.708198
-7.638785
-5.758969
-8.308507
-7.205246
-4.881957
-3.614104
-1.482370
-1.709272
-3.720170
-1.261451
-2.333532
-1.045811
0.262245
0.282398
-4.219580
-6.498503
-8.706815
-7.349352
-9.942893
-10.762125
-9.476785
-4.021313
-6.135095
-5.077761
-2.960533
-3.166449
-2.312236
-1.895560
-8.621188
-7.377545
-9.887023
-11.206760
-11.415091
-10.017611
-0.830477
-1.458401
-0.609016
0.228146
0.242494
-1.664729
-1.017843
-0.376078
-0.573493
-0.129906
0.250919
0.227883
1.526347
1.786798
1.272895
1.040362
2.298600
2.805226
-11.508223
-14.241974
-12.263344
-14.210976
-12.626362
-16.003342
-16.620439
-17.925866
-17.586559
-15.912013
-14.331491
-12.842044
-14.414953
-12.915134
-15.939959
-17.505003
-17.503659
-15.960263
-19.107015
-19.314144
-20.724425
-20.609863
-19.055539
-19.803481
-21.027228
-18.772423
-16.159362
-18.057112
-20.515732
-21.532004
-22.328340
-22.677042
-23.899048
-23.668309
-22.151378
-20.600886
-19.054231
-22.127036
-23.606709
-23.699527
-22.161844
3.315796
1.811968
2.520187
0.847177
1.386606
0.302511
0.706367
1.816040
1.055051
1.311713
2.057851
2.934752
0.125698
0.380446
0.617469
0.474473
0.567966
0.813834
0.942735
0.640209
0.668903
0.978766
1.437860
0.539226
0.510454
0.460661
0.402032
0.293776
0.370139
0.633170
1.411312
2.071545
0.904617
0.516416
0.714315
1.235147
2.930500
1.886402
2.678580
3.996936
4.257594
0.904617
1.411312
1.235147
0.714315
0.978766
0.516416
0.633170
1.437860
0.942735
1.311713
2.057851
2.071545
0.410637
0.000000
0.307558
0.928101
1.886402
1.554657
0.510727
0.000000
0.000000
0.221521
0.370139
0.000000
0.165914
0.460661
0.668903
2.934752
1.816040
2.520187
2.930500
4.257594
3.996936
2.678580
1.055051
1.386606
0.813834
0.640209
0.617469
0.706367
1.811968
0.847177
1.040362
2.298600
3.315796
2.286991
3.600439
3.111093
1.800135
1.114135
5.189148
4.611811
4.001733
5.661958
4.929568
3.356327
2.553944
0.589674
0.000000
1.244116
1.947797
0.638384
0.000000
0.000000
0.146845
0.293776
0.402032
0.510454
0.539226
0.567966
0.474473
0.380446
0.302511
0.125698
-0.129906
0.250919
0.227883
-0.376078
-0.609016
0.228146
1.272895
-0.573493
-1.017843
-1.458401
-1.664729
-2.312236
-1.895560
-0.830477
1.526347
2.805226
0.242494
-1.045811
0.262245
1.786798
0.000000
1.309315
0.654653
2.683745
1.996457
4.186806
3.434970
1.309315
2.683745
1.947797
0.638384
0.000000
5.871031
5.028292
4.186806
5.871031
4.929568
3.356327
2.553944
4.001733
3.111093
1.800135
1.244116
5.661958
4.611811
3.600439
5.189148
2.286991
0.589674
0.000000
1.114135
1.554657
0.510727
0.000000
-21.484394
-22.708856
-21.606543
-20.504476
-22.492934
-20.231097
-21.116603
-23.823481
-23.544717
-24.959189
-25.131197
-23.920315
-19.536744
-18.570511
-19.392035
-20.504476
-22.708856
-21.484394
-19.392035
-18.570511
-18.266497
-18.932451
-19.658938
-17.582256
-18.057112
-20.515732
-22.078327
-26.430728
-26.348656
-27.729420
-25.131197
-27.729420
-26.348656
-23.823481
-26.117631
-27.572927
-24.644899
-23.128844
-25.785817
-27.291403
-22.492934
-24.959189
-23.544717
-21.116603
-20.231097
-27.572927
-26.117631
-24.644899
-27.291403
-25.785817
-23.128844
-22.078327
-18.932451
-18.266497
-19.658938
-17.582256
-16.159362
-16.620439
-18.772423
-19.803481
-21.532004
-17.925866
-14.241974
-16.003342
-19.314144
-21.027228
-22.677042
-24.256504
-25.434897
-26.949537
-23.899048
-22.328340
-25.160112
-26.636389
-20.724425
-17.586559
-19.107015
-22.151378
-23.668309
-14.210976
-15.912013
-12.263344
-11.508223
-9.942893
-10.762125
-12.626362
-17.505003
-14.331491
-15.939959
-19.055539
-20.609863
-25.036142
-26.438209
-23.606709
-22.127036
-25.122315
-26.429677
-24.256504
-26.949537
-25.434897
-26.636389
-25.160112
-26.438209
-25.036142
-26.429677
-25.122315
0.146845
0.000000
0.165914
0.000000
0.221521
0.000000
0.307558
0.000000
0.410637
0.928101
0.000000
-26.799862
-23.699527
-25.432778
-20.600886
-22.161844
-17.503659
-19.054231
-14.414953
-15.960263
-12.842044
-11.206760
-11.415091
-12.915134
-9.476785
-8.706815
-7.638785
-8.308507
-9.887023
-7.349352
-6.498503
-5.708198
-4.219580
-3.720170
-4.974418
-6.669376
-8.621188
-10.017611
-7.205246
-5.758969
-6.135095
-7.377545
-5.077761
-4.881957
-4.021313
-4.281391
-3.614104
-3.239313
-2.778974
-2.960533
-2.333532
-3.166449
-1.709272
-1.482370
-1.261451
0.282398
-26.799862
-25.432778
